-142510.491995
-142510.574106
-142510.894421
-142510.569983
-142510.502972
-142509.487482
-142510.772587
-142510.673786
-142510.311380
-142511.261928
-142510.510222
-142510.486554
-142510.098100
-142510.456349
-142510.876877
-142510.484000
-142510.121078
-142510.361188
-142510.792027
-142509.923147
-142510.766797
-142510.405371
-142510.287498
-142510.483996
-142510.306939
-142509.978759
-142509.972113
-142511.005778
-142510.567194
-142510.446489
-142510.105627
-142510.614085
-142510.417717
-142510.746583
-142510.614253
-142509.988694
-142511.091698
-142510.206753
-142510.471569
-142510.130458
-142510.273781
-142511.221189
-142510.734639
-142510.275671
-142510.850788
-142509.947577
-142511.529112
-142510.622940
-142510.426470
-142510.337821
-142506.721995
-142506.556097
-142507.218940
-142506.954523
-142506.948141
-142507.621762
-142507.648964
-142507.902885
-142507.850744
-142506.902552
-142506.106050
-142507.105607
-142507.166272
-142507.373552
-142507.939737
-142507.424054
-142507.471290
-142507.614992
-142506.534614
-142506.988263
-142508.374609
-142507.161022
-142507.140464
-142507.306681
-142507.991620
-142507.055053
-142506.309999
-142506.918330
-142506.871380
-142507.471512
-142506.597650
-142506.973710
-142505.368158
-142506.547335
-142507.747099
-142507.455926
-142507.138042
-142507.032058
-142506.959990
-142507.597798
-142507.727069
-142506.981381
-142507.192680
-142506.768318
-142506.767011
-142507.161694
-142506.688985
-142507.229701
-142507.058371
-142507.288404
-142500.731480
-142501.452538
-142501.211915
-142501.944993
-142501.888467
-142500.905463
-142503.025807
-142501.644276
-142501.035546
-142501.682521
-142501.205505
-142500.499759
-142501.153452
-142501.548890
-142502.112020
-142501.131183
-142501.013471
-142501.149670
-142501.203266
-142501.040895
-142501.431636
-142501.797111
-142502.387711
-142500.502131
-142501.653745
-142501.716939
-142500.342579
-142502.322389
-142501.484451
-142501.626085
-142501.105556
-142501.118124
-142501.461724
-142501.930881
-142502.308483
-142502.456488
-142501.867129
-142501.795865
-142500.969987
-142502.109377
-142501.796557
-142501.440080
-142501.028985
-142502.095807
-142501.355947
-142501.177392
-142502.097902
-142500.785268
-142502.711124
-142502.219051
-142491.876446
-142491.459408
-142491.942039
-142492.747843
-142491.715463
-142492.787881
-142492.201940
-142491.216184
-142492.983516
-142492.127017
-142492.143891
-142493.050528
-142492.038844
-142491.686407
-142491.916945
-142491.333374
-142492.222521
-142492.190260
-142491.982916
-142492.742454
-142492.874915
-142492.401020
-142492.568970
-142492.807460
-142491.099503
-142490.729213
-142491.863264
-142491.411544
-142492.228242
-142492.913957
-142491.381729
-142490.817065
-142492.003900
-142491.791528
-142492.271685
-142492.181851
-142491.539510
-142491.290795
-142491.069073
-142492.005657
-142492.312166
-142491.595104
-142492.708953
-142491.793826
-142491.058891
-142493.389761
-142491.877684
-142492.631445
-142491.509075
-142491.806586
-142482.624581
-142482.742103
-142482.756383
-142483.779547
-142483.617344
-142482.972654
-142483.922091
-142482.845762
-142483.127342
-142483.323312
-142482.408896
-142483.955733
-142484.180241
-142484.195272
-142482.086601
-142482.120273
-142482.441374
-142484.418054
-142483.587525
-142483.587403
-142481.969805
-142483.466804
-142483.923253
-142483.280013
-142483.954621
-142484.020689
-142483.092892
-142482.986415
-142484.133999
-142482.786021
-142481.457669
-142483.935332
-142482.397776
-142484.630803
-142482.922520
-142483.383688
-142483.424793
-142484.040577
-142484.762616
-142483.466611
-142484.780504
-142484.768201
-142483.646962
-142482.969896
-142484.129098
-142483.043547
-142485.268730
-142483.368569
-142483.986356
-142481.962789
-142475.960106
-142476.390188
-142476.173322
-142477.307306
-142474.983822
-142475.235241
-142477.119191
-142474.707070
-142475.097709
-142475.620806
-142474.350600
-142476.516111
-142475.825896
-142475.340325
-142476.245527
-142476.343251
-142477.941680
-142475.983500
-142476.961858
-142476.852958
-142475.853404
-142475.148552
-142477.699957
-142475.532023
-142474.570474
-142475.941235
-142476.743448
-142476.816308
-142477.093377
-142477.328426
-142477.048249
-142475.351116
-142475.669922
-142476.558125
-142475.388651
-142475.079255
-142475.407056
-142478.228415
-142476.541998
-142477.166388
-142476.119360
-142476.195140
-142474.950277
-142477.296069
-142477.411452
-142474.676253
-142476.443663
-142476.558298
-142475.531026
-142474.822720
-142501.735822
-142501.388503
-142503.480526
-142503.769669
-142502.599492
-142502.032375
-142500.668604
-142502.399761
-142501.858604
-142502.225305
-142502.115770
-142501.291913
-142503.113178
-142503.216702
-142503.514778
-142502.118617
-142504.064740
-142501.728465
-142501.688157
-142501.542237
-142502.813803
-142503.175163
-142503.418008
-142503.227470
-142503.251050
-142503.122377
-142502.526342
-142502.366481
-142504.615878
-142503.809768
-142503.643306
-142501.261800
-142502.271464
-142503.788844
-142503.181998
-142503.283114
-142502.432275
-142503.111145
-142502.629021
-142501.331622
-142502.276837
-142502.040163
-142502.516814
-142503.984995
-142502.404245
-142503.318310
-142502.277856
-142503.763089
-142502.888478
-142503.191265
-142503.290064
-142502.008967
-142502.275632
-142503.719359
-142501.742698
-142503.162986
-142501.469932
-142503.233657
-142501.591313
-142502.511788
-142503.876632
-142503.391336
-142502.255271
-142502.649381
-142503.117717
-142503.675861
-142502.939428
-142502.512521
-142502.756333
-142504.313051
-142503.348721
-142503.698870
-142503.433201
-142502.039783
-142502.101332
-142502.062968
-142503.612438
-142503.011348
-142502.190898
-142503.634608
-142503.584297
-142502.425316
-142503.557557
-142502.453819
-142503.508759
-142502.415987
-142503.225942
-142502.516270
-142502.318749
-142503.851634
-142503.883436
-142501.654945
-142504.110319
-142502.398497
-142503.162701
-142502.104347
-142502.478509
-142504.182373
-142501.347459
-142501.656370
-142483.050296
-142483.181931
-142482.471479
-142484.494061
-142483.769201
-142485.065991
-142483.097340
-142484.694579
-142484.190461
-142483.047597
-142484.955685
-142485.104465
-142483.682899
-142483.051351
-142484.472656
-142483.374360
-142484.417308
-142482.534991
-142485.566590
-142483.993218
-142483.764352
-142485.200052
-142484.720867
-142484.558323
-142483.396722
-142484.270807
-142484.893481
-142482.492316
-142483.722373
-142484.393897
-142484.139814
-142482.787248
-142483.593103
-142483.895412
-142483.453474
-142484.183532
-142483.710536
-142483.185834
-142483.667124
-142484.709618
-142484.534859
-142483.121100
-142483.846934
-142483.449196
-142484.645862
-142483.386135
-142483.010345
-142483.856891
-142484.455805
-142484.962483
