2.236156	8.151083	17.079331	3.038008	6.753921	19.672135	-0.298012	0.715139	17.050987	-1.154321	2.258000	14.353201	-0.371050	3.773742	17.012606	2.249310	5.184103	16.937710	7.389624	8.150159	16.982737	8.291412	6.581912	19.733751	4.774566	0.725661	17.045324	3.950270	2.221564	14.305642	4.754238	3.699969	16.896138	7.346714	5.345630	16.982824	2.696473	3.050625	18.042443	-0.987770	5.996958	15.983363	0.130691	7.674988	18.434062	1.552869	1.171506	15.483996	7.920588	3.118548	17.966575	4.321586	5.933116	16.073321	5.307172	7.695139	18.560416	6.778185	1.164927	15.610037	-2.052837	3.633001	21.689248	9.108397	5.472041	12.331583	3.066600	3.532079	21.526304	3.906329	5.355392	12.387444	3.120733	0.502360	18.179414	2.825088	6.762343	17.979956	3.108481	3.883480	18.030055	2.803304	8.153058	20.394745	1.926024	1.635276	20.123422	-0.833638	1.307938	20.444780	-1.290175	8.388480	15.999028	-1.030314	2.174417	16.048495	-1.350629	5.110580	16.002669	-0.894329	0.696324	13.621312	-0.148405	7.267022	13.799529	2.684083	7.683191	13.740057	0.545301	5.026403	18.084552	0.148702	2.342024	18.110296	0.516490	8.583369	18.092606	0.184411	3.621244	20.312779	-0.454655	6.266962	20.199757	1.890865	5.453368	20.464418	1.261511	4.033657	15.853335	1.564921	6.818904	15.968835	1.178267	0.562316	16.077139	1.744660	5.377751	13.712806	2.369587	2.752326	13.770176	-0.046632	3.609391	13.706336	8.405135	0.453902	18.149495	7.933205	6.812801	18.060148	8.390157	3.958213	18.027584	7.883409	8.229272	20.477903	7.140529	1.697742	20.162824	4.281443	1.328603	20.382748	3.775127	8.479732	15.897772	4.174967	2.207029	16.000470	3.766184	5.115277	16.103032	4.177455	0.769121	13.517699	5.225880	7.196788	13.793595	7.888344	7.635110	13.588609	5.762561	5.028028	18.058071	5.506254	2.253354	18.196394	5.753132	8.434521	18.052948	5.307001	3.568501	20.499187	4.698698	6.152334	20.190431	7.111488	5.550512	20.402993	6.317269	3.979362	15.942295	6.717274	6.694531	15.819904	6.385610	0.455643	16.090623	6.898170	5.394983	13.715289	7.589016	2.836813	13.806968	4.978894	3.518294	13.647447	2.959610	0.609784	19.696701	-1.288357	8.436400	14.387119	0.466269	5.018387	19.652148	0.335155	2.223608	19.648857	1.227850	3.845826	14.379424	1.371106	6.839170	14.237462	8.151918	0.593879	19.666287	4.079398	8.367231	14.348776	5.687457	5.199112	19.645273	5.600075	2.068791	19.674455	6.505918	3.888120	14.306088	6.688951	6.850561	14.389518	
2.300005	8.219594	17.087921	3.002675	6.617009	19.709404	-0.447408	0.851556	16.926867	-1.139816	2.302665	14.324650	-0.356448	3.782068	16.963611	2.265070	5.200963	17.083948	7.430054	8.151337	17.077604	8.172499	6.562203	19.650403	4.833309	0.723783	16.917743	3.901563	2.347897	14.330214	4.691021	3.788902	17.056701	7.318271	5.330723	17.066801	2.679287	2.978449	17.955768	-0.930385	5.982649	16.028142	0.155906	7.859540	18.550655	1.585911	1.325606	15.628821	7.901449	3.071970	18.138295	4.336287	5.980082	15.995009	5.389152	7.725026	18.531350	6.748578	1.172580	15.492232	8.177299	3.493228	21.647947	9.115549	5.320238	12.310126	2.949855	3.649332	21.591222	4.045438	5.311864	12.317309	3.141593	0.504620	18.011340	2.792872	6.645063	18.045653	3.074381	3.827706	18.051668	2.675050	8.122595	20.330046	1.872899	1.773342	20.205873	-0.873106	1.293526	20.470063	-1.268367	8.389262	15.985535	-0.871131	2.349056	15.928799	-1.426510	5.108156	15.937335	-0.844313	0.701564	13.691473	-0.081606	7.246263	13.938624	2.659586	7.689122	13.664978	0.622935	4.843236	18.204597	0.297256	2.296979	18.169353	0.598716	8.533828	18.070295	0.074573	3.709984	20.358793	-0.582579	6.174804	20.106957	2.045754	5.449768	20.504956	1.180828	4.029930	15.941102	1.608924	6.781254	15.849818	1.242313	0.540942	15.993998	1.713661	5.299812	13.701597	2.400325	2.897573	13.823650	-0.142087	3.600321	13.657673	8.422491	0.538711	18.104128	7.862077	6.788844	17.954634	8.316857	3.947247	18.027661	7.876103	8.285055	20.507960	7.146070	1.664385	20.064200	4.455641	1.248567	20.257287	3.871042	8.492056	15.952625	4.345618	2.209060	16.049777	3.778191	5.142448	15.975630	4.194327	0.711613	13.509683	5.073761	7.166557	13.854950	7.721812	7.657736	13.698997	5.804292	4.938212	18.122083	5.507714	2.185305	18.132307	5.799915	8.483104	17.942845	5.287261	3.540174	20.392336	4.641402	6.105579	20.219805	7.111324	5.366098	20.325987	6.443314	4.008688	15.924457	6.725087	6.695536	16.012841	6.395553	0.477091	16.132750	6.816466	5.398030	13.714283	7.627032	2.764975	13.756790	4.981151	3.581273	13.678153	2.973377	0.576362	19.690356	-1.195611	8.400164	14.386612	0.580039	5.044226	19.724694	0.379829	2.247870	19.795549	1.306437	3.950910	14.265187	1.477749	6.765484	14.267744	8.138298	0.532539	19.708207	3.989257	8.410155	14.294607	5.767171	5.052774	19.816813	5.466483	2.132751	19.720770	6.418059	3.783758	14.202374	6.551440	6.880927	14.327070	
2.300847	8.236065	17.098056	3.042679	6.742888	19.772651	-0.434850	0.824039	16.954015	-1.295896	2.284865	14.199447	-0.334186	3.736929	16.956365	2.272921	5.220231	16.944248	7.497492	8.129679	17.134168	8.273204	6.744332	19.690214	4.731889	0.840176	17.041759	4.053164	2.392669	14.323645	4.702166	3.812172	16.958967	7.377100	5.244563	16.933392	2.601376	3.084164	18.006722	-0.936278	5.982625	15.911341	0.238806	7.714722	18.579137	1.735452	1.307615	15.562760	7.794701	3.049943	18.065374	4.312466	5.859675	16.071275	5.307980	7.798181	18.503607	6.904780	1.307533	15.612403	8.149828	3.615468	21.682165	-1.158849	5.402056	12.262134	2.987285	3.552459	21.612662	3.853730	5.466369	12.434156	3.237288	0.428019	18.168533	2.822927	6.789587	18.002604	3.160578	3.967932	18.015099	2.703731	8.244618	20.390650	1.915039	1.701732	20.237884	-0.712819	1.299726	20.446862	-1.270284	8.522495	15.988514	-0.878053	2.205173	15.949831	-1.381190	5.143013	15.999760	-0.826096	0.769393	13.674360	-0.139414	7.350452	13.833809	2.691615	7.808560	13.726707	0.609369	5.025305	18.177933	0.112025	2.212899	18.206079	0.560349	8.434399	18.060618	0.049817	3.698191	20.427571	-0.626496	6.168307	20.232477	1.895642	5.504434	20.403453	1.266156	4.138946	15.891166	1.525945	6.749075	15.861522	1.316344	0.540648	16.083614	1.565118	5.426525	13.527912	2.334690	2.851320	13.872070	-0.053026	3.575580	13.618633	8.422246	0.473325	18.199995	7.889954	6.725522	18.055274	8.278682	3.910491	18.009553	7.791750	8.224285	20.393989	7.122048	1.790175	20.121424	4.328519	1.351870	20.263900	3.874434	8.437703	15.881961	4.337266	2.254317	16.061977	3.838185	5.006682	16.123186	4.295654	0.687281	13.705358	5.204499	7.228950	13.880316	7.734268	7.649110	13.659395	5.835696	5.024077	18.074360	5.509609	2.266164	18.174542	5.757141	8.449496	18.076126	5.289428	3.571169	20.315564	4.615919	6.233151	20.235525	7.051116	5.555510	20.343545	6.276518	3.959844	15.953220	6.735783	6.691144	16.011200	6.456598	0.549007	15.963915	6.767113	5.276522	13.669052	7.483900	2.786877	13.778046	4.978743	3.446914	13.613879	2.962935	0.513883	19.794581	-1.282956	8.396581	14.320787	0.570330	5.125482	19.835708	0.451213	2.261289	19.798369	1.343880	3.925599	14.287462	1.344936	6.725882	14.428618	8.210767	0.628822	19.832270	4.059270	8.263833	14.311797	5.719494	5.125610	19.726564	5.513931	2.224834	19.787224	6.415598	3.841343	14.342732	6.575173	6.771551	14.299514	
2.160627	8.247777	17.040271	3.028379	6.732291	19.644087	-0.425611	0.821125	16.908661	-1.137298	2.255103	14.387686	-0.332220	3.764633	17.003319	2.164453	5.269762	17.069428	7.322843	8.257703	16.962682	8.189588	6.645797	19.708406	4.745342	0.822082	17.077538	3.957884	2.375307	14.376614	4.710536	3.683167	16.916586	7.294611	5.349516	17.090313	2.629319	2.940028	18.018646	-0.794459	5.903829	15.909067	0.148940	7.859972	18.514894	1.550644	1.309820	15.601429	7.851243	3.069886	18.057328	4.281772	5.927862	15.991535	5.344104	7.664528	18.552538	6.754818	1.220355	15.540775	8.129370	3.542883	21.628607	-1.157100	5.321602	12.399201	2.967647	3.538011	21.665766	3.994268	5.464681	12.453678	3.280959	0.492907	18.152327	2.763175	6.744617	17.943521	3.186796	3.826584	18.055280	2.672476	8.245147	20.431979	1.897746	1.652617	20.146890	-0.742928	1.280058	20.483096	-1.293036	8.404306	15.967501	-0.925948	2.280842	15.973495	-1.277395	5.177207	15.957152	-0.895275	0.749016	13.557622	-0.114563	7.207342	13.896657	2.653121	7.619319	13.767686	0.540889	4.968654	18.079176	0.122702	2.268245	18.073110	0.564013	8.586572	18.018296	0.212215	3.707287	20.362765	-0.521740	6.111995	20.256156	2.002953	5.532232	20.389998	1.157144	3.970482	15.964446	1.599770	6.736074	15.997026	1.257293	0.452526	16.042822	1.557369	5.436930	13.661968	2.324704	2.918582	13.829679	-0.226534	3.482097	13.650449	8.368876	0.505230	18.141043	8.014162	6.801433	17.936733	8.280620	3.870286	17.970885	7.970705	8.157416	20.379392	7.112541	1.619943	20.239742	4.467139	1.325182	20.435641	3.848667	8.427954	15.985657	4.316932	2.312775	16.012762	3.826092	4.996968	15.979453	4.203376	0.736054	13.705654	5.040285	7.269905	13.887044	7.837085	7.644454	13.715021	5.870853	4.980145	18.176693	5.332344	2.208539	18.139369	5.714306	8.494577	18.061873	5.415209	3.690625	20.360117	4.591638	6.125826	20.149522	7.131812	5.557259	20.362998	6.261030	3.971489	15.854572	6.730724	6.731634	15.882942	6.465692	0.477659	16.101804	6.847574	5.262557	13.529064	7.631952	2.721301	13.912396	5.088381	3.562598	13.572396	2.988440	0.549027	19.668437	-1.143911	8.441056	14.274361	0.466486	5.161617	19.689261	0.256174	2.103995	19.628351	1.334231	3.946259	14.229183	1.411490	6.740627	14.367023	8.274134	0.651052	19.678116	4.047923	8.282522	14.273842	5.767566	5.030668	19.794586	5.545960	2.229923	19.648675	6.470549	3.909416	14.209696	6.665516	6.861110	14.237405	
2.233440	8.138374	17.087174	3.130746	6.749891	19.691905	-0.409395	0.840139	17.020035	-1.276062	2.329182	14.209047	-0.434023	3.655473	16.956866	2.179318	5.336937	17.002605	7.486834	8.244865	17.140292	8.140517	6.593769	19.754806	4.882520	0.790970	17.084979	3.974366	2.356963	14.355991	4.819009	3.648523	17.031974	7.327290	5.228667	16.995447	2.664548	2.961796	17.922509	-0.839568	6.017994	15.990288	0.144405	7.725259	18.446927	1.627863	1.155687	15.444828	7.790109	3.115173	18.057497	4.389509	6.013564	16.069525	5.436639	7.812939	18.529844	6.797814	1.169992	15.586370	-2.088274	3.649811	21.645726	9.022780	5.419193	12.378239	2.966470	3.633318	21.647114	4.034893	5.336860	12.375335	3.140145	0.569145	18.125713	2.711650	6.635220	18.053094	3.156909	3.842599	18.014131	2.759385	8.258756	20.366337	1.934715	1.730113	20.248964	-0.785727	1.349548	20.496378	-1.352711	8.362079	15.910118	-0.881229	2.277819	15.968057	-1.384479	5.111930	16.121785	-0.874742	0.684905	13.545315	0.004946	7.194456	13.829714	2.573888	7.669948	13.610963	0.700171	5.031564	18.090523	0.169324	2.268006	18.112228	0.701906	8.544942	17.970026	0.169074	3.629699	20.336210	-0.555056	6.244107	20.245548	1.870868	5.412295	20.368172	1.285370	3.953248	15.979359	1.477096	6.794784	15.940906	1.238876	0.508061	16.129029	1.714304	5.362297	13.604205	2.450444	2.781929	13.804511	-0.112897	3.598064	13.519342	8.355564	0.527422	18.074759	7.913361	6.796350	18.073346	8.329598	3.850630	17.980210	7.866509	8.147584	20.369537	7.031884	1.623573	20.230853	4.429959	1.241947	20.258644	3.854089	8.516557	15.984023	4.269562	2.337814	16.049466	3.823401	5.177649	16.015317	4.210606	0.813787	13.594974	5.154481	7.293959	13.767607	7.896161	7.702008	13.697255	5.888752	4.929499	18.207317	5.483083	2.313291	18.082950	5.738265	8.446000	17.965738	5.335938	3.624463	20.315448	4.570322	6.194829	20.158050	7.069489	5.443071	20.510074	6.436489	4.096286	15.922487	6.723828	6.662882	15.949476	6.347641	0.548760	16.014889	6.948890	5.430888	13.715757	7.512212	2.701419	13.775805	5.087673	3.617884	13.674045	3.039370	0.512449	19.811485	-1.237600	8.371631	14.332874	0.580514	5.042832	19.815509	0.339620	2.139101	19.766130	1.271856	3.897416	14.261731	1.479823	6.795030	14.273533	8.127925	0.701885	19.820718	3.979420	8.419081	14.351299	5.785667	5.019203	19.737555	5.575309	2.234961	19.614355	6.537002	3.861965	14.320958	6.701866	6.737119	14.384676	
2.263082	8.192792	17.089783	3.013208	6.610080	19.803574	-0.422658	0.840975	16.987433	-1.211108	2.301735	14.385478	-0.459554	3.699720	17.066894	2.295755	5.153509	17.018534	7.313512	8.295102	16.947507	8.184098	6.629215	19.732008	4.792769	0.841583	16.985348	4.030541	2.222235	14.318598	4.819034	3.798358	17.009775	7.359877	5.242849	17.104241	2.638412	2.967757	18.103587	-0.931593	5.993518	15.970838	0.253796	7.817297	18.505112	1.638083	1.147724	15.592951	7.932891	3.055776	17.947945	4.308607	5.956188	15.960063	5.432804	7.688005	18.373835	6.874827	1.160432	15.602999	-2.108882	3.541603	21.697512	9.138447	5.367057	12.254807	2.983407	3.647297	21.650581	3.968749	5.375571	12.396422	3.260917	0.446941	18.141926	2.756304	6.696841	17.957431	3.159486	3.857483	18.041392	2.673988	8.228447	20.424166	1.921797	1.664252	20.201215	-0.901118	1.221747	20.442087	-1.400504	8.378271	15.944220	-0.913842	2.254325	15.980329	-1.400739	5.074786	16.036365	-0.857569	0.874350	13.641136	-0.043922	7.227797	13.862457	2.583207	7.699329	13.628760	0.589225	4.849091	18.126709	0.227478	2.215359	18.192802	0.582756	8.460608	18.113521	0.195083	3.707504	20.444622	-0.602760	6.125984	20.176312	1.927622	5.385660	20.394147	1.195477	4.123989	15.997564	1.524099	6.814351	15.924024	1.193313	0.550204	16.092913	1.745673	5.401462	13.629722	2.315185	2.855247	13.898650	-0.059172	3.555826	13.684554	8.490514	0.447772	18.083789	7.859604	6.754244	18.036623	8.391584	3.954157	17.974929	7.893718	8.113703	20.469973	7.065012	1.649635	20.110240	4.366429	1.189361	20.441190	3.719836	8.518724	16.003617	4.165780	2.206578	16.060228	3.910068	5.015080	16.130667	4.348677	0.828550	13.690130	5.227804	7.212291	13.793880	7.778344	7.704476	13.728117	5.794498	5.026145	18.131372	5.458591	2.324784	18.017058	5.777118	8.483786	17.900486	5.338558	3.599948	20.361427	4.608616	6.178146	20.229133	7.085387	5.390632	20.358894	6.299668	4.110384	15.837562	6.715013	6.763880	15.831079	6.383900	0.436415	16.134877	6.918859	5.427161	13.615076	7.573313	2.778348	13.865742	5.022551	3.440752	13.536413	3.103382	0.682872	19.811714	-1.194777	8.418577	14.380420	0.498060	5.109648	19.663838	0.364301	2.224553	19.642655	1.259924	3.776047	14.214190	1.398387	6.744157	14.317058	8.116865	0.532573	19.827832	4.056406	8.345318	14.393256	5.770029	5.072942	19.680782	5.475924	2.136361	19.719337	6.517460	3.936230	14.378660	6.624992	6.903014	14.325089	
2.260521	8.202682	17.016097	3.013397	6.625257	19.828133	-0.369768	0.831600	16.961595	-1.159322	2.379376	14.301643	-0.517987	3.690708	16.942771	2.192887	5.203253	17.037667	7.493734	8.243440	17.011796	8.179177	6.695516	19.689819	4.780530	0.726083	16.955360	3.997654	2.390634	14.268683	4.873056	3.714464	16.902995	7.443054	5.194172	17.001275	2.623766	3.031695	18.062068	-0.941537	5.859251	15.944775	0.156812	7.757004	18.559396	1.700258	1.145373	15.494466	7.790592	3.125283	18.015836	4.324917	6.027666	16.077135	5.334987	7.752880	18.539057	6.905065	1.173358	15.575996	8.146625	3.587542	21.584951	9.134484	5.311552	12.278373	3.086566	3.508591	21.558653	3.879353	5.507518	12.320522	3.156967	0.479236	18.161502	2.711435	6.642795	17.946303	3.230122	3.847592	17.905192	2.640930	8.146104	20.386948	1.879557	1.698105	20.196112	-0.710103	1.300666	20.491313	-1.355587	8.513564	15.971403	-0.947016	2.327566	16.084622	-1.325769	5.163158	16.054941	-0.904844	0.875349	13.655898	-0.028725	7.264436	13.761817	2.694664	7.617034	13.610614	0.652606	4.867182	18.120675	0.251035	2.322378	18.036508	0.507140	8.500071	17.970044	0.153829	3.663539	20.471410	-0.558179	6.230256	20.161987	1.933169	5.487600	20.307935	1.244885	3.999141	16.013063	1.570353	6.638299	16.000483	1.255715	0.620135	16.072670	1.663272	5.336785	13.683364	2.311722	2.767463	13.789254	-0.076948	3.538124	13.611339	8.495818	0.434744	18.180954	7.897687	6.792552	18.092446	8.289266	3.869649	17.983445	7.832648	8.249903	20.391434	7.145058	1.627245	20.125855	4.471353	1.346674	20.369099	3.857577	8.442287	15.981211	4.244732	2.157808	16.074935	3.883879	5.041466	16.096311	4.259392	0.763838	13.628878	5.078444	7.164287	13.938876	7.770405	7.663521	13.662821	5.871792	4.995211	18.140924	5.455320	2.179429	18.171922	5.825821	8.411274	18.054724	5.294571	3.693696	20.351580	4.686290	6.134459	20.200373	7.226587	5.498739	20.413702	6.265718	4.041706	15.972666	6.687740	6.727843	15.992380	6.373501	0.435741	16.127613	6.914585	5.349050	13.525824	7.612902	2.842280	13.909809	4.998204	3.463435	13.668300	3.068084	0.656668	19.746843	-1.122470	8.422877	14.339031	0.590920	5.078752	19.752582	0.420894	2.150548	19.622192	1.201715	3.895071	14.235661	1.436935	6.789670	14.334568	8.227963	0.640032	19.663170	4.031514	8.345652	14.334185	5.632606	5.103702	19.654168	5.518903	2.207105	19.647618	6.354243	3.842514	14.320284	6.659257	6.885160	14.255923	
2.277980	8.258198	16.996036	3.020556	6.612004	19.702077	-0.420912	0.840896	17.065868	-1.250538	2.357466	14.310391	-0.417608	3.651879	17.060186	2.194101	5.248286	17.110175	7.400330	8.276848	16.971275	8.248644	6.680071	19.652486	4.823819	0.865560	17.001245	3.922431	2.288730	14.205738	4.712409	3.636987	17.094878	7.279023	5.357385	17.056764	2.574376	3.033922	17.966121	-0.830814	6.018495	15.977330	0.176097	7.717963	18.600604	1.649403	1.271979	15.463570	7.909893	2.995352	18.080455	4.314192	5.854340	16.092310	5.435850	7.695099	18.564877	6.920044	1.178375	15.639859	8.141593	3.607262	21.688995	9.109493	5.472909	12.282035	3.089453	3.530233	21.698965	3.911218	5.369917	12.402370	3.281651	0.611901	18.092739	2.789179	6.648009	18.015740	3.108469	3.834237	17.933404	2.742465	8.207951	20.390612	1.897971	1.777141	20.195333	-0.711709	1.318893	20.421992	-1.360361	8.422520	15.925046	-0.922695	2.290391	15.954005	-1.304839	5.011637	15.947471	-0.962110	0.716071	13.585102	-0.035148	7.251109	13.955516	2.651555	7.623501	13.686497	0.670277	4.871045	18.107986	0.181187	2.162136	18.035123	0.640200	8.534683	17.945537	0.187327	3.626191	20.479004	-0.527521	6.275628	20.160606	2.003406	5.466120	20.489574	1.117990	3.990649	16.009431	1.589457	6.723905	16.024725	1.331171	0.580958	16.070689	1.647515	5.348904	13.617929	2.462429	2.768828	13.827187	-0.123395	3.612946	13.543064	8.476849	0.470438	18.121605	7.852568	6.634352	17.931469	8.346563	3.887480	18.006762	7.865075	8.272063	20.374000	7.132248	1.630888	20.203941	4.365383	1.207747	20.272072	3.715474	8.482313	16.023316	4.212383	2.185199	15.993241	3.896379	5.115386	16.079469	4.224810	0.782605	13.571973	5.106646	7.207943	13.932737	7.788349	7.763821	13.631763	5.884775	4.942569	18.198305	5.354504	2.208225	18.063711	5.823217	8.381118	18.053320	5.305746	3.653403	20.487504	4.642312	6.205223	20.178435	7.114584	5.440580	20.315578	6.419140	4.094246	15.853759	6.721580	6.707425	15.886665	6.360668	0.570909	16.014780	6.938543	5.281239	13.584360	7.543355	2.821575	13.843163	5.065231	3.464609	13.571179	3.086552	0.668697	19.717194	-1.234203	8.381772	14.331908	0.497240	5.197088	19.811151	0.419522	2.226334	19.662119	1.248707	3.919351	14.248163	1.519355	6.719986	14.297305	8.288797	0.521522	19.679432	3.988676	8.388790	14.307802	5.787214	5.195263	19.720589	5.584452	2.230544	19.751611	6.456407	3.902708	14.268509	6.655309	6.898483	14.368522	
2.239697	8.190675	17.084251	2.982234	6.636610	19.832252	-0.435397	0.703433	17.054154	-1.128335	2.365806	14.358946	-0.463704	3.712333	17.062355	2.242949	5.329581	17.105505	7.311053	8.256930	16.978986	8.226609	6.678320	19.800201	4.853179	0.744826	16.901362	3.882896	2.354068	14.315085	4.848648	3.774281	16.901102	7.451275	5.255076	16.983473	2.589588	3.026469	17.927267	-0.792366	5.989480	16.045307	0.259330	7.745026	18.544441	1.607099	1.250464	15.528456	7.775107	3.132045	18.088211	4.366510	5.941840	15.994510	5.343849	7.741411	18.484961	6.860939	1.285385	15.464722	-2.118541	3.492247	21.587797	9.047300	5.335868	12.326165	3.115698	3.549179	21.528337	3.943912	5.474806	12.405132	3.244994	0.591815	18.047433	2.817353	6.660983	18.113262	3.182181	3.781483	17.981283	2.636806	8.219531	20.349090	1.932054	1.616100	20.259771	-0.795354	1.242343	20.344404	-1.431587	8.498017	15.944893	-0.932022	2.226731	15.977876	-1.393154	5.131800	15.947801	-0.783738	0.742470	13.570747	-0.149517	7.336654	13.952129	2.703575	7.780129	13.754866	0.567422	4.853070	18.134120	0.226816	2.325270	18.162105	0.552529	8.461012	18.110783	0.211600	3.708267	20.338687	-0.593244	6.103077	20.085574	1.881919	5.381904	20.465568	1.085884	4.140944	16.019342	1.506224	6.660400	15.864605	1.236333	0.555653	15.984391	1.619894	5.261436	13.657158	2.328157	2.724768	13.841911	-0.074272	3.477384	13.574814	8.405945	0.470847	18.181841	7.892798	6.660267	18.065675	8.408099	3.949782	18.039689	7.955590	8.182484	20.513475	7.073217	1.702762	20.057580	4.381853	1.308124	20.338705	3.728262	8.478622	16.006494	4.292188	2.289910	16.063057	3.813484	5.111072	16.054316	4.319764	0.824395	13.527898	5.045198	7.202424	13.772067	7.857829	7.772802	13.565366	5.732454	4.975879	18.147777	5.358012	2.280320	18.019366	5.801790	8.366372	18.009550	5.292633	3.578653	20.444380	4.677345	6.059379	20.202216	7.039506	5.368923	20.380360	6.356911	4.139303	15.889437	6.718866	6.807111	15.971779	6.406578	0.540472	16.106512	6.927959	5.398196	13.591083	7.595345	2.806286	13.802137	5.096743	3.556448	13.710651	3.026891	0.680948	19.775355	-1.249002	8.309471	14.332805	0.473251	5.163897	19.702529	0.337125	2.122033	19.685760	1.178121	3.880148	14.223778	1.523365	6.900022	14.377982	8.169920	0.701674	19.740151	3.963084	8.301050	14.257394	5.818539	5.051784	19.654349	5.552041	2.149632	19.719282	6.403271	3.878122	14.310080	6.635026	6.909389	14.317466	
2.123028	8.227079	17.075482	3.073210	6.741758	19.660037	-0.339897	0.793460	17.095067	-1.147302	2.330712	14.384850	-0.377445	3.749532	17.046619	2.127766	5.213940	17.049485	7.417740	8.277859	17.079252	8.209041	6.563055	19.798351	4.857110	0.728307	17.047766	3.878672	2.371253	14.288379	4.687809	3.795326	16.977185	7.393430	5.333026	16.950585	2.610427	2.995938	17.970876	-0.972343	5.880482	15.946301	0.231909	7.810212	18.439891	1.586661	1.265732	15.564863	7.901814	3.020196	17.963958	4.236638	5.950335	15.952866	5.410633	7.714034	18.393294	6.752401	1.309806	15.621908	8.202403	3.483663	21.726241	9.116852	5.325495	12.437900	3.038225	3.641294	21.705545	3.946041	5.403327	12.276958	3.110709	0.437991	18.072757	2.685082	6.712682	17.949615	3.219470	3.886219	18.042311	2.676787	8.132213	20.466632	1.926214	1.621557	20.109906	-0.900337	1.226823	20.430352	-1.287207	8.436544	16.023490	-0.963587	2.265137	16.108123	-1.412322	5.078455	16.087611	-0.968850	0.798543	13.642701	-0.077669	7.258028	13.832196	2.539954	7.760631	13.671169	0.556442	4.878551	18.069058	0.118748	2.288677	18.088416	0.614655	8.560555	17.934406	0.032882	3.621420	20.434630	-0.620391	6.148880	20.165022	1.861214	5.461922	20.314855	1.110819	4.071657	15.849816	1.528753	6.805282	15.874942	1.230004	0.498722	15.965746	1.659574	5.437763	13.559861	2.423001	2.758524	13.883197	-0.064331	3.559485	13.600294	8.332124	0.491652	18.061177	7.887420	6.742944	18.015688	8.241784	3.872887	18.042633	7.930776	8.205536	20.360225	7.137317	1.675510	20.134916	4.384938	1.306349	20.396677	3.825149	8.497949	15.986576	4.159350	2.327878	16.082983	3.815626	5.037820	16.024594	4.347281	0.858017	13.655954	5.201014	7.163341	13.827477	7.757246	7.657585	13.628903	5.777067	4.878109	18.020894	5.501806	2.298959	18.143589	5.715573	8.510812	17.964261	5.433545	3.635585	20.496005	4.545273	6.096556	20.125293	7.162187	5.491544	20.360585	6.325829	3.964621	15.869871	6.749864	6.827594	15.928015	6.470792	0.494896	16.051466	6.845194	5.350769	13.647792	7.514510	2.810160	13.912246	4.976383	3.611649	13.668576	2.964580	0.523830	19.750633	-1.235054	8.458963	14.366677	0.469019	5.200843	19.779374	0.400641	2.247481	19.737185	1.218949	3.828834	14.296501	1.527541	6.861659	14.365060	8.222562	0.654238	19.808212	4.045165	8.379551	14.242812	5.749298	5.049279	19.658756	5.557080	2.175382	19.625596	6.388339	3.935410	14.223806	6.676278	6.848121	14.343122	
2.110677	8.151829	16.954521	3.118519	6.657603	19.776948	-0.473341	0.802652	16.923008	-1.253666	2.404952	14.371576	-0.491486	3.726313	17.000151	2.285183	5.230019	17.002985	7.348601	8.294764	16.942055	8.140255	6.584130	19.795365	4.834655	0.852132	17.021620	3.922161	2.388682	14.377380	4.767159	3.643660	16.935336	7.430457	5.291115	16.999372	2.691616	3.070231	18.094875	-0.929467	5.854293	16.077797	0.111008	7.740104	18.426007	1.629228	1.180798	15.627715	7.803497	3.164986	18.128723	4.241430	5.976437	15.983504	5.254470	7.737546	18.369807	6.829204	1.326961	15.542184	-2.057261	3.618354	21.668998	-1.185751	5.421617	12.348663	2.990218	3.509886	21.533471	4.044317	5.410981	12.284549	3.259188	0.454810	18.034452	2.768781	6.638751	17.940100	3.087457	3.944222	18.064990	2.677412	8.134872	20.413555	1.787848	1.667151	20.105906	-0.806069	1.183133	20.364488	-1.387236	8.528865	15.961896	-0.991522	2.289416	15.953116	-1.425073	5.069209	16.009753	-0.929455	0.687943	13.665312	-0.116579	7.194727	13.873029	2.569697	7.623356	13.619099	0.701010	4.976890	18.063398	0.196294	2.345006	18.045268	0.509700	8.452142	18.066052	0.064430	3.603302	20.363358	-0.619328	6.090140	20.172374	1.960266	5.375107	20.356118	1.249205	3.982694	15.904307	1.551969	6.830194	15.890606	1.332892	0.534342	16.069416	1.600091	5.265824	13.586344	2.320550	2.818829	13.886821	-0.055251	3.519786	13.630437	8.405386	0.495400	18.102490	7.869433	6.812878	17.959430	8.423089	3.831784	18.006720	7.898393	8.208710	20.484094	7.071734	1.693787	20.221402	4.381843	1.279312	20.396215	3.866335	8.363535	15.895252	4.295395	2.317851	15.955980	3.881779	5.111333	16.087137	4.192515	0.792823	13.595857	5.166248	7.173074	13.848571	7.816005	7.651215	13.656752	5.774917	4.953295	18.195930	5.454791	2.301779	18.182673	5.677093	8.366851	18.025958	5.253077	3.635631	20.362759	4.605773	6.186293	20.201095	7.124639	5.389580	20.478642	6.344786	4.022733	15.980038	6.832896	6.692763	15.820852	6.502817	0.523789	16.139601	6.759054	5.310292	13.560695	7.606261	2.818777	13.791075	4.978947	3.442199	13.599535	2.926942	0.606849	19.774701	-1.219641	8.467720	14.248031	0.466954	5.158002	19.707378	0.357566	2.074504	19.670064	1.177802	3.921881	14.254595	1.482834	6.787463	14.334821	8.200691	0.690617	19.831319	3.919046	8.294545	14.246757	5.665505	5.034678	19.771097	5.460582	2.116599	19.725408	6.365103	3.863344	14.252481	6.594744	6.829214	14.293628	
2.203635	8.135802	17.028960	3.044929	6.576751	19.750748	-0.440879	0.825321	16.973481	-1.191199	2.386077	14.284848	-0.368732	3.665897	16.953018	2.288023	5.280950	16.970922	7.477135	8.206513	17.110772	8.257059	6.631542	19.750906	4.841051	0.714068	17.092922	3.946371	2.328400	14.296981	4.726439	3.635646	17.077599	7.352986	5.258882	16.942583	2.648654	2.946448	17.940758	-0.977738	6.007517	15.987001	0.269958	7.822661	18.453787	1.684273	1.196453	15.461347	7.922376	3.070195	18.122329	4.261548	5.965115	16.061990	5.290241	7.813974	18.393427	6.765139	1.259978	15.612635	-2.100752	3.670932	21.616201	9.108713	5.372034	12.352651	2.997672	3.490843	21.637136	3.855250	5.318063	12.406179	3.185921	0.490501	18.121443	2.780360	6.622379	18.041527	3.145507	3.822574	17.924933	2.694169	8.134456	20.329732	1.912898	1.802096	20.186355	-0.763281	1.177776	20.427817	-1.339004	8.395748	15.949588	-0.996255	2.241295	16.075804	-1.359941	4.995417	16.052638	-0.978052	0.849055	13.666909	-0.043780	7.249645	13.763610	2.659732	7.693976	13.598680	0.513578	4.975678	18.007618	0.274051	2.213966	18.203046	0.507345	8.458335	18.083156	0.070439	3.677673	20.459144	-0.572301	6.224422	20.195138	1.980440	5.389046	20.442200	1.224627	4.102895	15.902673	1.477611	6.746512	15.888240	1.298703	0.496000	15.956846	1.651251	5.264648	13.550838	2.438869	2.839342	13.839324	-0.224905	3.477058	13.651195	8.468172	0.432986	18.089198	7.906319	6.763286	18.106200	8.325497	3.901867	18.036615	7.876766	8.227714	20.357115	7.083266	1.734713	20.121445	4.366824	1.269881	20.356697	3.751790	8.378917	15.943475	4.219719	2.267546	16.053016	3.886904	5.099676	15.947690	4.234856	0.791686	13.690987	5.126731	7.297971	13.770787	7.871161	7.725300	13.650748	5.822459	4.938909	18.160449	5.501618	2.230142	18.113077	5.708680	8.498142	18.005061	5.435690	3.587992	20.342082	4.667505	6.198942	20.221258	7.089374	5.431260	20.335166	6.363905	4.006971	15.922336	6.703365	6.839757	15.889931	6.344645	0.561562	15.981264	6.814701	5.424476	13.680409	7.594027	2.816167	13.865883	4.990531	3.446838	13.548670	3.094234	0.620769	19.703398	-1.137893	8.458854	14.356970	0.557181	5.073463	19.692350	0.275629	2.114238	19.657783	1.175461	3.769977	14.322204	1.467768	6.785047	14.311711	8.233602	0.561659	19.760899	4.040262	8.427066	14.383922	5.751167	5.121931	19.670753	5.494106	2.224122	19.622958	6.538829	3.835802	14.326147	6.536360	6.866272	14.333661	