-48103.247458
-48104.605805
-48103.532231
-48103.072977
-48103.058954
-48101.601663
-48101.963166
-48104.153961
-48101.311490
-48104.378712
-48102.607528
-48104.406781
-48104.288179
-48102.665500
-48102.813506
-48101.668880
-48103.648958
-48103.483542
-48102.360009
-48105.196817
-48102.141345
-48103.247550
-48102.108426
-48101.934745
-48103.726426
-48104.571878
-48103.777822
-48104.143653
-48105.845860
-48106.445653
-48102.114013
-48104.341763
-48104.223139
-48102.580784
-48103.251875
-48104.797624
-48105.167289
-48101.595417
-48104.104100
-48103.571965
-48102.397423
-48103.314157
-48104.504851
-48101.480240
-48105.529077
-48104.043070
-48103.720698
-48104.112563
-48101.941153
-48102.597514
-48101.304367
-48103.364483
-48102.925445
-48104.572027
-48104.557080
-48103.274976
-48104.415692
-48103.953382
-48102.366635
-48101.014701
-48101.797329
-48103.195729
-48104.920844
-48105.043208
-48102.602693
-48104.881186
-48104.571977
-48102.485287
-48102.868638
-48103.888607
-48102.551005
-48104.342985
-48102.116723
-48104.166108
-48105.767581
-48101.850877
-48102.475165
-48103.886767
-48103.253389
-48105.108195
-48102.256795
-48102.432971
-48103.487502
-48102.691318
-48101.506085
-48103.443257
-48105.761621
-48104.307289
-48102.461695
-48103.820209
-48104.566627
-48100.119603
-48103.513468
-48105.188599
-48103.188261
-48105.540935
-48103.314720
-48102.220414
-48102.451691
-48103.474132
-48104.545585
-48100.090351
-48102.721423
-48104.652434
-48104.129103
-48103.263880
-48100.992167
-48103.575757
-48103.602673
-48104.291864
-48105.329054
-48105.156440
-48103.080691
-48103.678322
-48105.517370
-48102.997011
-48101.617293
-48103.620724
-48104.931413
-48104.955098
-48104.607491
-48104.655439
-48107.210487
-48101.917996
-48102.267825
-48103.800857
-48103.191502
-48100.570537
-48104.118381
-48101.896579
-48103.338820
-48104.632349
-48102.579716
-48104.548465
-48102.020069
-48102.008468
-48103.966438
-48102.331367
-48104.800156
-48104.133396
-48104.886039
-48100.458407
-48103.838872
-48104.742072
-48103.648322
-48101.692843
-48100.890549
-48101.959595
-48105.146354
-48104.335009
-48103.395276
-48102.520405
-48103.652946
-48104.925763
-48103.949356
-48101.946161
-48102.651012
-48103.861598
-48104.824824
-48105.421343
-48101.402822
-48105.531511
-48104.581619
-48106.197696
-48102.865306
-48103.746301
-48102.201594
-48103.105849
-48104.955075
-48104.931754
-48104.115692
-48104.721632
-48104.285244
-48103.389271
-48106.479305
-48104.855983
-48103.370928
-48102.254481
-48101.538218
-48103.769017
-48104.048701
-48105.027783
-48104.372610
-48103.386070
-48104.826048
-48104.279608
-48105.546726
-48100.200727
-48099.238446
-48102.397824
-48104.254522
-48105.074707
-48102.925102
-48105.497154
-48102.395574
-48103.051717
-48104.652077
-48104.265727
-48103.505999
-48103.029530
-48104.067279
-48104.696354
-48099.140498
-48103.374006
-48100.942486
-48103.184752
-48102.920039
-48102.667608
-48104.836025
-48103.296605
-48104.429834
-48104.702615
-48104.705844
-48102.851413
-48105.187742
-48101.368556
-48102.878076
-48102.243615
-48104.259621
-48102.048286
-48103.472837
-48102.996841
-48100.881953
-48105.009290
-48104.847899
-48105.701191
-48104.778324
-48102.406913
-48103.209969
-48102.410176
-48104.308946
-48105.431123
-48099.681623
-48100.740172
-48103.771926
-48104.114162
-48103.787101
-48104.951192
-48103.797441
-48104.001099
-48103.436944
-48104.125515
-48105.656841
-48102.459921
-48103.806588
-48102.224736
-48102.729569
-48105.293150
-48105.444643
-48103.607644
-48104.252781
-48101.163053
-48101.000033
-48102.291739
-48100.989839
-48102.293266
-48103.907660
-48102.840728
-48104.844787
-48103.103116
-48104.364670
-48104.430575
-48102.944642
-48102.913677
-48105.145520
-48104.047997
-48103.531623
-48103.566466
-48103.533131
-48103.007870
-48102.079415
-48105.273492
-48104.837639
-48101.307201
-48100.051517
-48103.042196
-48104.156359
-48103.480887
-48102.277602
-48105.121705
-48103.513313
-48104.568934
-48103.146146
-48103.202700
-48101.792805
-48103.452534
-48102.555176
-48102.746993
-48105.485059
-48104.102606
-48099.622042
-48101.790551
-48104.110426
-48104.869222
-48104.462880
-48103.968682
-48100.832675
-48104.330841
-48103.793710
-48102.983149
-48103.647534
-48103.533798
-48102.788278
-48104.837100
-48103.977067
-48104.698796
-48101.700347
-48104.024500
-48105.324204
-48104.842424
-48104.093700
-48106.100705
-48105.286442
-48103.874566
-48103.016624
-48103.185553
-48102.081479
-48105.218131
-48102.966751
-48103.940529
-48102.601107
-48104.692274
-48104.732472
-48104.298374
-48103.942699
-48104.672985
-48105.217930
-48105.594267
-48104.517130
-48103.142692
-48104.045738
-48103.431924
-48103.871697
-48102.300987
-48104.205750
-48101.794183
-48099.211568
-48103.320380
-48104.983646
-48105.838980
-48104.664639
-48102.033235
-48102.886057
-48104.274727
-48103.972272
-48104.952123
-48103.428758
-48103.777129
-48105.764567
-48101.948019
-48103.682529
-48104.126778
-48103.503598
-48102.836039
-48102.281944
-48104.091583
-48105.157260
-48104.904027
-48103.433822
-48102.969681
-48103.517366
-48104.336341
-48103.909735
-48104.050638
-48105.053363
-48103.250125
-48105.241286
-48102.688451
-48104.085620
-48103.596280
-48103.627784
-48101.539837
-48105.885867
-48102.947436
-48105.191246
-48104.034300
-48103.994774
-48103.572861
-48105.898522
-48105.989043
-48105.256723
-48105.786646
-48104.763440
-48105.523093
-48102.491325
-48105.621863
-48103.206426
-48104.919409
-48102.400043
-48102.051834
-48104.635622
-48102.054210
-48100.760491
-48103.876677
-48102.985464
-48102.349072
-48102.636347
-48104.345941
-48103.675366
-48102.194851
-48102.953318
-48101.643110
-48098.128167
-48100.581909
-48102.516907
-48100.706832
-48102.174733
-48102.131212
-48101.717404
-48101.939230
-48104.082456
-48102.237772
-48104.173439
-48103.616486
-48102.448707
-48101.953333
-48102.418758
-48103.051616
-48103.560955
-48103.337303
-48105.314363
-48104.111250
-48103.412554
-48103.474126
-48101.781443
-48102.964417
-48101.561474
-48104.472975
-48101.574293
-48103.405769
-48103.584166
-48103.999435
-48103.160269
-48104.051789
-48103.324305
-48102.810887
-48102.721327
-48104.398414
-48102.139447
-48101.802889
-48104.848912
-48102.637300
-48103.607813
-48103.083939
-48103.056826
-48100.155134
-48102.913981
-48102.512328
-48104.599223
-48102.298852
-48102.634122
-48104.697624
-48101.555584
-48100.718860
-48103.947507
-48102.294450
-48103.343948
-48102.021112
-48104.059563
-48101.732061
-48103.072588
-48103.626717
-48101.745768
-48102.423504
-48103.310426
-48103.210979
-48103.837850
-48103.672151
-48104.521498
-48102.384851
-48103.683879
-48100.362980
-48101.986530
-48104.078791
-48104.671793
-48102.895809
-48102.590457
-48103.849782
-48101.907618
-48102.928621
-48103.496250
-48101.756573
-48104.084681
-48102.205028
-48102.693386
-48102.166615
-48103.781668
-48103.057326
-48102.573815
-48103.485473
-48103.865166
-48103.917806
-48101.832457
-48105.012436
-48102.851810
-48103.922906
-48103.059923
-48103.335669
-48106.443510
-48104.487447
-48103.532932
-48104.359250
-48102.043539
-48103.456135
-48104.388403
-48103.469727
-48103.848167
-48102.832157
-48102.241180
-48103.648984
-48104.813436
-48101.114391
-48104.742589
-48105.039947
-48100.291320
-48102.571380
-48102.209201
-48103.117628
-48104.812333
-48100.564485
-48103.960529
-48104.619310
-48106.030261
-48103.791291
-48105.222557
-48100.843092
-48104.294085
-48103.703161
-48104.116243
-48101.810186
-48102.805385
-48104.712200
-48103.909262
-48102.900507
-48103.006330
-48103.102970
-48103.866730
-48104.703489
-48103.643200
-48104.216978
-48103.720720
-48101.658042
-48102.219355
-48102.109183
-48105.220323
-48101.862127
-48104.676584
-48104.358071
-48103.557258
-48101.825369
-48103.521248
-48104.044155
-48102.280491
-48104.385659
-48103.385169
-48105.676330
-48103.718692
-48100.757856
-48103.975184
-48104.456264
-48104.101274
-48099.575989
-48103.905526
-48102.585586
-48103.672667
-48104.994032
-48104.622752
-48102.524948
-48102.940784
-48104.011342
-48102.791060
-48101.748384
-48104.310983
-48102.455091
-48105.912607
-48103.544124
-48104.664116
-48102.789023
-48104.302365
-48104.648653
-48103.216381
-48103.174112
-48103.305840
-48102.281941
-48106.878220
-48103.593131
-48104.081366
-48104.173623
-48103.917728
-48104.113131
-48102.484498
-48100.989625
-48103.833296
-48105.151644
-48104.609325
-48103.318145
-48102.495743
-48104.793249
-48105.233239
-48105.973183
-48103.415096
-48100.332710
-48103.140774
-48102.151814
-48106.749999
-48103.079669
-48102.661265
-48105.564453
-48104.812100
-48103.766295
-48102.155040
-48102.860482
-48104.225285
-48103.434889
-48106.224141
-48102.286287
-48102.240450
-48104.136030
-48103.465801
-48103.611288
-48102.947144
-48104.471974
-48104.369530
-48103.888799
-48105.154372
-48105.822212
-48101.908489
-48104.013004
-48104.501103
-48102.281610
-48101.878216
-48103.855477
-48103.666157
-48104.029885
-48104.103775
-48104.961834
-48101.795954
-48100.504617
-48105.122701
-48103.262352
-48104.067756
-48100.445189
-48103.802480
-48102.189430
-48104.371636
-48105.325659
-48105.400966
-48104.980370
-48100.613821
-48103.313109
-48105.443951
-48105.747001
-48101.684314
-48104.137249
-48104.285820
-48103.115294
-48103.833627
-48103.003008
-48103.627673
-48103.996754
-48103.536895
-48101.737357
-48103.028154
-48103.025590
-48101.893962
-48102.685149
-48103.898988
-48101.375816
-48102.035430
-48102.886336
-48104.694997
-48102.193549
-48104.330083
-48104.708445
-48103.967759
-48104.623113
-48104.855342
-48103.177841
-48103.777903
-48104.636728
-48105.334395
-48112.222759
-48112.089994
-48112.002080
-48112.163876
-48112.188245
-48112.245860
-48112.350444
-48112.074676
-48111.799534
-48112.407645
-48112.033557
-48112.400157
-48112.551774
-48112.337153
-48111.883036
-48112.146592
-48112.272178
-48112.079291
-48111.946366
-48112.125245
-48112.168565
-48112.384413
-48112.229573
-48112.312106
-48112.308591
-48111.943620
-48112.216110
-48111.955069
-48111.974367
-48112.438895
-48112.441580
-48112.312313
-48112.396800
-48112.044825
-48112.176750
-48112.205167
-48112.178946
-48112.225931
-48112.106040
-48112.231756
-48112.243192
-48112.295700
-48111.902047
-48112.336148
-48112.327256
-48112.321415
-48111.292877
-48112.832546
-48111.361405
-48112.829912
-48112.207615
-48110.776385
-48112.389237
-48111.061357
-48112.632179
-48112.413877
-48112.383205
-48112.388179
-48112.492134
-48112.483213
-48112.092279
-48111.226065
-48112.303098
-48112.496924
-48112.053639
-48111.082275
-48112.205443
-48111.713214
-48112.335596
-48111.601180
-48112.664914
-48112.279731
-48112.822417
-48112.946974
-48112.200692
-48112.474474
-48112.311406
-48112.332074
-48112.961074
-48112.585009
-48112.328453
-48111.084354
-48112.410911
-48113.049091
-48112.361054
-48112.597413
-48112.213355
-48112.406762
-48112.210031
-48112.160316
-48112.642908
-48112.645759
-48112.497287
-48112.521136
-48112.477849
-48112.452641
-48112.474789
-48112.387029
-48112.597118
-48112.707817
-48112.601221
-48112.421235
-48112.283604
-48112.350949
-48112.520845
-48112.253178
-48112.320743
-48112.429411
-48112.548412
-48112.602800
-48112.540856
-48112.426211
-48112.636212
-48112.610751
-48112.587316
-48112.495732
-48112.392204
-48112.394500
-48112.579915
-48112.303699
-48112.329677
-48112.343996
-48112.574574
-48112.428572
-48112.499795
-48112.513387
-48112.704525
-48112.545432
-48112.639163
-48112.533064
-48112.599433
-48112.421361
-48112.620009
-48112.612598
-48112.637999
-48112.374730
-48112.363202
-48112.301410
-48112.014494
-48112.367091
-48113.412632
-48113.291010
-48113.422299
-48113.144105
-48113.266287
-48113.354600
-48113.277226
-48113.376321
-48113.205646
-48113.552474
-48113.111303
-48113.370217
-48113.344755
-48113.166140
-48113.478670
-48113.473780
-48113.483746
-48113.436070
-48113.264034
-48113.295958
-48113.426949
-48113.440212
-48113.247136
-48113.330281
-48113.212763
-48113.290674
-48113.324586
-48113.415864
-48113.213014
-48113.372072
-48113.552311
-48113.265804
-48113.141598
-48113.370501
-48113.324573
-48113.406091
-48113.502209
-48113.575740
-48113.327008
-48113.500913
-48113.481078
-48113.401859
-48113.465431
-48113.086826
-48113.360200
-48113.407574
-48111.936471
-48111.622693
-48111.640145
-48111.418034
-48111.574215
-48111.634581
-48111.636810
-48111.633688
-48111.725169
-48112.027763
-48111.715747
-48111.650138
-48111.761505
-48111.540401
-48111.604054
-48112.012692
-48111.453943
-48111.655718
-48111.689838
-48111.727868
-48111.947220
-48111.587437
-48111.657255
-48111.674947
-48111.730453
-48111.947682
-48111.434945
-48111.724272
-48111.912405
-48111.656895
-48111.663669
-48111.412748
-48111.510689
-48111.658642
-48111.659745
-48111.767520
-48111.956428
-48111.539238
-48111.777052
-48111.622374
-48111.505568
-48111.460603
-48111.429958
-48111.607849
-48111.560520
-48111.717483
-48111.470444
-48112.481947
-48112.343898
-48112.658513
-48112.559662
-48112.622796
-48112.448189
-48112.567692
-48112.218403
-48112.168723
-48112.518879
-48112.606808
-48112.456986
-48112.427416
-48112.056480
-48112.008807
-48112.017876
-48112.055025
-48111.757903
-48112.161858
-48111.867557
-48111.733117
-48111.932474
-48111.789984
-48111.722365
-48111.693172
-48111.858766
-48112.011489
-48111.901672
-48111.679671
-48111.968870
-48111.811166
-48111.827659
-48112.829077
-48113.127049
-48113.024598
-48113.164186
-48112.262999
-48112.027683
-48111.973466
-48112.163990
-48112.406387
-48112.304377
-48112.473244
-48112.363016
-48112.508627
-48111.999207
-48112.165185
-48111.924002
-48111.998453
-48112.126200
-48112.246154
-48112.214268
-48112.152828
-48112.343083
-48112.128290
-48112.390688
-48112.101489
-48112.714846
-48111.962293
-48112.112607
-48112.037705
-48112.254011
-48112.119853
-48112.297993
-48112.019892
-48112.134685
-48112.271878
-48111.709163
-48111.887368
-48111.987222
-48112.061601
-48112.169647
-48112.258976
-48112.118394
-48112.035163
-48112.179540
-48112.074864
-48112.053640
-48111.951299
-48112.187867
-48111.937966
-48112.670365
-48112.146432
-48112.494009
-48112.696963
-48112.129757
-48112.041920
-48111.963409
-48112.079245
-48111.956437
-48112.220078
-48112.087124
-48112.384456
-48112.146644
-48112.117800
-48112.712005
-48112.232449
-48111.948107
-48112.088207
-48112.020917
-48112.020761
-48111.895379
-48111.798314
-48112.038650
-48112.305811
-48112.151708
-48112.166088
-48111.978751
-48112.294355
-48112.107359
-48112.354062
-48112.036467
-48112.015073
-48111.927057
-48112.148512
-48112.090759
-48112.077954
-48111.598349
-48112.119251
-48112.120853
-48112.041740
-48112.782288
-48111.973543
-48112.469618
-48112.578350
-48111.925176
-48111.635412
-48111.995208
-48112.323942
-48112.011541
-48112.026452
-48111.987644
-48111.809758
-48111.952623
-48112.250499
-48111.996060
-48112.503059
-48112.658367
-48112.825016
-48112.252693
-48112.281104
-48112.789254
-48112.562403
-48112.640176
-48112.743659
-48112.517376
-48112.855727
-48112.808757
-48112.521116
-48112.425076
-48112.580059
-48112.362215
-48112.714170
-48112.522125
-48112.801560
-48112.636884
-48113.276312
-48113.027011
-48113.448234
-48113.153416
-48113.168498
-48113.010834
-48113.092588
-48112.993046
-48113.520174
-48113.169445
-48113.072865
-48113.049197
-48112.804841
-48113.187246
-48113.183783
-48113.063208
-48113.029038
-48113.214716
-48113.185361
-48113.325415
-48112.947024
-48113.061403
-48113.137288
-48113.059547
-48113.332490
-48113.212840
-48113.176438
-48112.989767
-48113.043461
-48112.965891
-48113.161547
-48113.114317
-48113.388249
-48113.134274
-48113.066720
-48113.094789
-48112.891869
-48113.114451
-48113.276296
-48113.387514
-48112.497409
-48112.599979
-48112.653709
-48112.374623
-48112.392186
-48112.353572
-48112.466677
-48112.323594
-48112.377728
-48112.204246
-48112.434750
-48112.488014
-48112.236136
-48112.420009
-48112.557637
-48112.320939
-48112.615626
-48112.406925
-48112.676621
-48112.324166
-48112.392765
-48112.213855
-48112.555048
-48112.463410
-48112.583069
-48112.354116
-48112.682591
-48112.318692
-48112.276553
-48112.450614
-48112.386539
-48112.468912
-48112.396977
-48112.427500
-48112.497079
-48112.578477
-48112.507169
-48112.237656
-48112.454022
-48112.333882
-48112.394683
-48112.199823
-48112.351181
-48112.660849
-48112.952224
-48112.059930
-48112.826233
-48111.972451
-48112.423331
-48112.389634
-48112.140708
-48112.265361
-48112.214146
-48112.672689
-48112.099121
-48112.548234
-48112.178864
-48112.389637
-48112.484925
-48112.799910
-48112.195285
-48112.593279
-48112.464702
-48112.818209
-48112.417897
-48112.049585
-48111.784893
-48112.552285
-48112.867162
-48112.499231
-48112.322362
-48112.471200
-48112.643727
-48113.088903
-48112.538706
-48112.144030
-48112.550005
-48111.946290
-48112.220063
-48111.960274
-48112.320507
-48112.289714
-48111.895945
-48112.512947
-48112.824073
-48112.541807
-48112.244593
-48112.403070
-48112.103054
-48112.582680
-48112.182081
-48112.677292
-48112.732178
-48112.078631
-48112.301542
-48112.358545
-48112.260291
-48111.858126
-48111.899013
-48112.714718
-48112.525972
-48112.505159
-48112.912891
-48113.008178
-48112.421439
-48112.484456
-48112.617701
-48111.941866
-48112.298181
-48112.683658
-48111.916545
-48112.594709
-48112.451047
-48112.077747
-48112.352194
-48112.205568
-48112.805678
-48112.034494
-48112.096856
