-1.188557	1.180052	-0.741503	0.453956	-5.946714	1.738305	-2.310235	1.760832	-0.206139	-0.628868	1.929924	-2.075075	-1.154192	-0.118746	-0.061525	-1.634940	2.087565	2.062682	0.247739	1.113574	2.576062	-1.044845	2.847959	1.807599	-0.313373	0.307379	0.615257	-0.945918	2.855536	-1.333491	-0.023339	0.266370	1.801262	0.643520	-1.693289	1.644176	-0.899507	-1.679450	0.253821	0.653683	0.168040	-0.099140	0.886676	2.832934	-0.661958	0.704737	1.151995	-1.113153	-0.126795	-0.022265	0.281508	-0.937954	-0.949205	0.001426	0.948387	1.258946	-0.683031	0.443690	0.925968	-0.485521	-0.363028	-0.107061	0.031963	-0.013621	-0.212494	0.121875	-0.041534	0.137826	0.406726	-0.039423	0.053030	0.099121	1.184912	-0.385643	-5.393587	0.088197	-1.061985	-0.660047	1.428873	1.264587	-0.900453	-0.654447	4.058467	1.271162	-6.486215	4.292578	0.027743	1.220070	0.710149	-2.385242	-1.411844	-0.253618	-0.337058	0.617190	0.669800	0.535152	-0.800404	0.049029	0.083343	0.652937	3.858929	-1.006399	1.565352	0.141606	0.789455	-0.450138	0.276029	-0.339033	0.612535	-0.986266	-3.038150	0.401773	-0.662947	-2.048193	1.104768	-4.561132	1.801742	-0.559556	0.152656	2.060378	-0.436517	-1.629955	-1.295408	0.111682	0.763733	-2.519667	-0.529140	0.519695	6.945867	-0.859089	-0.864930	-1.960640	0.434953	-1.454910	0.602726	-1.135338	-1.769537	-0.290472	-1.379311	1.511503	1.593662	-7.762058	-2.847199	-2.576796	0.288718	-0.086365	-4.013407	-0.363440	-1.415337	-2.620726	-0.431426	0.220897	-0.664105	0.094041	-1.225428	-1.054032	-3.214373	1.666238	0.023710	1.844041	-0.290341	-1.011164	1.101967	0.237356	2.483316	0.632995	-0.371966	1.544554	2.938680	0.601244	-1.433942	1.315684	-2.415296	0.745412	-1.445482	2.335781	0.947771	-1.860314	0.749758	1.645846	0.124600	-0.747711	-2.106924	-1.392850	-0.104935	-6.967992	-1.172632	-0.944949	-0.000420	1.963589	1.009030	-2.960141	-5.627866	3.976640	0.431384	-0.417588	-1.346717	-0.689140	0.998555	0.403156	-0.259294	0.873565	0.333157	10.156185	-0.237741	-0.564802	-0.677964	-0.099464	-1.916310	-0.462989	1.237331	-0.428253	0.545021	2.235893	0.091796	1.132450	2.994749	-2.500724	4.076456	2.026290	-4.577541	-0.910970	3.245659	5.854627	3.981479	0.764308	-5.356311	3.353219	8.769485	0.262886	-5.641277	1.228696	1.077312	3.208463	2.477672	-1.509773	4.727133	-1.226305	-1.071352	-3.593079	3.882650	-5.443006	2.843593	-0.912888	2.186384	7.851382	-2.388347	-0.477187	-1.351308	-0.523896	-0.151300	-10.219828	
-2.491592	-0.877156	-1.443321	2.306465	-1.543522	1.424087	1.905682	-0.672068	1.963464	-0.727309	1.159634	-3.506125	-1.411751	0.081221	0.711090	-1.475717	0.645847	-1.110280	-1.026774	2.490079	-1.541082	0.694383	2.182348	1.691173	0.132096	0.880203	2.425523	1.635174	-1.306083	-0.120936	2.624691	-1.155507	-0.564507	0.296169	-2.915134	-1.663205	-0.797369	-1.096102	-0.077245	-0.765465	-1.546791	-0.419914	-0.413760	-0.901796	0.632404	0.808130	1.246491	-0.613195	-0.024635	0.649371	-0.073318	-0.980758	-1.477841	-0.032586	1.258241	2.245266	-1.733725	-0.588276	-1.282916	1.365940	0.101717	-0.298650	-0.096274	-0.374478	0.326370	0.445045	0.747559	-0.580681	0.824849	-0.227500	0.418845	0.071151	0.575537	1.029613	2.641300	-0.203055	0.482924	-1.928276	1.327775	1.086841	-0.159238	-0.164912	2.929984	0.591601	1.455636	-1.106526	-0.142794	2.347972	0.867431	-0.976397	-1.386615	0.639657	0.809818	-0.065969	-1.095356	3.267943	1.567466	1.611904	1.398511	0.564955	3.591034	-1.503451	0.967679	-0.493005	-0.947597	-0.759859	-0.071666	-0.485435	1.306126	0.803906	-4.444987	-0.879432	-0.164205	-0.714706	1.192671	0.749347	-1.307472	-0.413330	-1.889011	2.255385	1.287338	-1.055416	-0.450002	-3.280167	-0.423633	-1.781542	1.066391	0.706130	-0.418119	0.386881	-0.197708	2.041506	-0.784313	-1.305319	0.986680	1.452256	3.434866	-3.007301	-0.495499	-0.223242	-0.106062	0.421402	-0.889321	-0.082128	-0.231884	-0.995020	-0.968511	1.935829	-1.882650	3.286709	0.888348	-0.242615	-0.380408	-0.740048	-6.909287	0.339029	-5.531155	3.219628	0.810442	-7.827769	-6.042810	3.199797	-0.482093	-0.615083	-1.635427	-1.702981	1.170847	-1.314718	1.311100	0.288643	0.845553	0.603058	4.201483	0.149104	-1.678544	2.220681	0.111614	3.638343	3.339536	-0.386159	-0.908799	-0.105228	0.886458	-1.335192	0.656077	-1.333293	-1.634700	-3.101847	3.412515	0.055322	2.816519	1.340228	-0.504045	0.302123	-0.027096	5.733368	1.548621	2.560890	-1.319340	-0.445165	-1.424817	-1.387953	1.775982	-3.268387	2.281719	1.504779	-3.736643	-0.471894	-2.471468	-1.245109	-1.678512	0.674464	0.199242	-1.539821	-1.422056	-0.796273	0.316650	0.666364	-0.309971	-0.893782	-5.396564	-0.484423	-0.061025	5.414802	3.323414	-3.008491	-3.638365	-1.564064	-2.144174	-4.452063	2.854149	-1.293455	2.870162	1.599149	3.853057	3.663756	-1.165748	-0.607096	-3.865791	1.231677	-6.455964	-1.395845	-3.640663	9.230092	2.019545	-4.174160	4.522059	2.696386	3.969468	0.377917	-3.759198	3.640182	
-1.380682	0.534106	-0.976725	0.213431	-2.994170	-1.256907	1.604364	-1.099092	2.086012	2.297143	2.542529	1.108088	-1.484864	0.205006	1.321518	-1.737921	1.889681	2.864172	-2.161200	2.523151	-0.613455	-2.170441	-1.336035	1.459619	2.853562	-1.556168	0.448251	-4.430975	-6.293311	0.946856	3.122454	-2.988208	3.155398	-0.093667	-0.332511	2.527138	1.747819	2.414600	0.214738	0.208299	0.351912	0.061699	-0.434864	-0.581420	0.291208	-0.954599	-1.956450	1.101253	0.488217	0.990031	-0.079549	-0.068777	-0.270459	-0.081778	-1.613887	-2.857786	1.665954	0.162742	0.478305	-0.012435	0.068853	0.201956	-0.194194	-0.109053	0.073490	0.270392	0.306750	0.222943	0.110848	0.259071	-0.018547	-0.243183	-0.252067	1.065885	0.141985	-0.065512	-1.267457	0.262328	-2.277004	-3.387862	0.215372	-1.976711	-7.648696	5.557997	-1.081076	0.817775	0.029529	-0.811916	-0.741501	0.194339	-1.669863	-1.228627	-1.487663	-0.575465	2.113982	-0.499972	0.671255	-1.121548	0.006085	-0.463603	-0.334631	-1.006822	2.338172	-2.129689	0.878163	-4.739204	-4.206692	-0.454388	0.352678	-1.249210	-0.968456	1.360305	1.248561	-0.998573	1.542809	1.108439	-1.211329	1.047858	-0.569178	0.521309	2.380302	-0.947321	0.648687	5.054111	1.716981	2.172677	-0.614745	-0.582383	1.172509	1.166565	-0.917382	8.005810	0.544591	1.706200	-0.688450	0.830928	-1.254795	0.619007	3.757292	-2.027971	-0.278516	-2.696967	-1.254741	0.238879	-0.278248	-0.252650	-0.798148	1.017014	-1.096432	-1.186126	0.327483	-0.777792	-1.099938	0.154724	-0.255458	1.476179	-1.840610	0.728535	1.130658	-1.855205	-2.411321	2.068534	-0.351485	0.123030	3.348429	-1.915611	1.158339	-0.899008	-0.101113	3.675260	-3.326410	0.948922	3.622010	-1.048862	-3.100865	0.289802	-1.758148	1.369889	0.998951	0.113774	-1.643333	-0.767294	0.311217	-1.327123	-0.060550	-0.934306	1.956660	3.523642	-2.727035	-0.969303	8.405444	3.642979	-0.181889	-1.250268	-0.115160	3.075427	0.313803	1.285673	0.931615	0.827096	-0.843771	-0.402259	0.450672	-3.494819	-0.082712	-1.604315	1.242725	0.655438	0.814363	0.048791	-0.013570	0.122252	0.265153	4.035764	3.912834	-1.457632	3.406289	10.460930	-5.206785	0.545287	-0.682247	0.939671	-5.820844	1.207131	-3.450507	-2.565116	-2.483039	-1.273458	-2.486725	0.580665	-1.020115	-0.099991	5.547738	-9.596951	1.560677	1.416049	-1.744833	-0.608958	2.742611	0.912967	-2.255832	0.681532	-1.596297	4.180138	-6.154746	-5.396724	-0.643465	-1.324274	-1.327016	3.864425	-1.533994	4.269875	
1.279384	-1.019442	-0.022784	0.676999	-1.624867	2.209474	-0.005682	-1.184252	1.516545	-1.926872	1.239869	-4.212124	-2.500330	0.569201	-0.557782	0.365776	-0.766723	0.080834	1.364786	-2.076371	2.440980	2.501366	0.764502	-0.619787	0.868600	-2.087787	-0.734360	-0.054034	-0.332260	-3.101670	1.664003	2.392461	2.154927	1.438598	-1.104361	-0.919176	1.667885	2.695451	0.272338	2.987967	5.121460	-0.082130	0.149056	0.443541	-0.250225	-0.106569	-1.920509	0.737819	-1.431201	-2.432105	0.044999	-1.043686	-2.472620	0.009151	0.917009	2.274480	-1.222468	0.061457	-0.402604	0.270149	0.315198	0.169471	0.009762	-0.280948	0.113656	0.048324	-0.092533	0.144812	-0.276243	-0.194220	-0.168614	-0.172756	-1.035985	0.008644	-3.332669	-0.164221	0.377318	0.776037	-1.918805	-1.956984	-0.618529	-0.139554	-2.424217	-0.019181	-3.032589	1.208356	-1.307091	-1.751460	-1.537458	-0.186045	-0.221530	1.068020	-1.860967	0.863282	-0.719179	3.964105	-3.987535	-5.990986	1.100645	1.098778	2.630941	-1.553258	1.349727	0.344854	0.168935	-1.201692	-0.107276	-0.734107	0.578814	0.079629	-0.520946	0.475935	-0.610444	-0.824554	0.085294	-0.697658	0.894006	-0.616567	-3.826476	-1.097464	-5.126364	3.839280	0.555490	-2.255909	-0.275164	-1.641296	1.919106	0.575237	-2.012163	-1.118962	-0.411803	-1.891155	-0.714897	3.636748	-1.962199	1.121344	-5.224420	-2.874770	4.746963	-3.389688	-0.985976	4.041817	1.595878	-0.003466	0.792027	1.002975	-3.689813	-0.392411	-0.330994	0.838634	2.132109	3.198849	-0.860025	0.242541	3.118474	-0.504086	-2.638455	2.563779	-1.141904	-2.145270	-0.698773	-1.347953	0.225232	0.584104	-1.149179	-1.081974	-2.682342	-0.318359	0.157457	3.095505	-0.173896	0.144500	2.383989	-0.810029	7.854268	-5.533203	-2.265490	2.484732	2.748584	-2.311525	-0.734956	-0.822167	-1.697716	0.704180	0.876046	-3.479551	0.129066	-2.150350	0.763436	-0.596602	-5.477894	2.014435	0.829512	-0.384448	-0.268852	-0.062911	-1.788292	1.255072	0.994863	1.144613	0.338719	-0.560876	0.353588	-1.310488	-1.562636	2.655485	-2.062271	0.764859	5.517595	-0.457267	-2.513910	1.518645	0.240050	-2.817964	-1.851112	-0.589860	1.970075	3.919862	4.270672	-0.925587	-5.133659	3.310502	6.087743	-2.107137	1.094387	5.649693	3.528043	3.048006	-7.347521	-0.060879	3.427793	-0.601093	6.912480	3.454113	-1.599427	-3.368481	4.553443	-6.170425	5.091015	5.509096	-1.556302	7.823099	-2.339892	1.857295	-2.911800	5.014493	2.319385	-4.782985	2.976527	-3.648216	-4.481752	3.011594	
-0.147496	1.412668	-1.070513	-3.657864	-2.654574	0.487567	1.724552	-1.101231	-0.433407	3.303232	-1.092419	-0.134598	1.554096	2.495809	1.023987	-0.270013	-2.187987	-0.166163	-1.523685	-0.763488	-1.555428	2.025769	0.171046	0.615654	-2.229453	-0.160784	-1.434007	1.147220	0.474128	-1.020725	-1.664207	2.984718	-0.414954	1.588092	1.318914	1.217718	0.914873	1.786044	0.138496	-1.709825	-3.033609	0.540531	2.258848	2.889668	-1.619284	-0.960501	-1.448721	1.553526	-1.326194	-2.350479	0.144360	-1.178156	-1.578425	-0.163002	-1.238670	-2.544189	2.345527	2.518605	3.954842	-2.743971	0.195707	-0.085230	0.118427	0.495874	0.338397	-0.342637	0.233858	-0.054987	-0.209967	-0.349325	0.401714	-0.111125	0.860585	-0.780773	0.533080	1.056129	2.258975	-0.540964	-0.018488	-1.510845	-0.619666	-2.838052	-11.237146	5.592727	-1.956832	-0.488787	-0.354609	-3.165699	-2.180833	0.217802	-0.420966	1.284449	2.608293	-1.492383	-0.951142	-1.298235	2.261154	2.536126	-1.198564	-0.140228	3.045777	0.385289	-2.467539	1.379543	0.492881	3.661844	2.573593	0.433001	-1.830249	-1.452796	1.585596	0.190086	-0.893663	1.837469	-4.326774	-3.756965	3.508850	-1.190700	-1.804403	1.786676	0.429354	-2.251757	-0.479064	8.354828	3.108006	3.054017	-1.226645	0.655959	-2.170057	1.235723	-0.534006	-0.851685	0.907900	2.216482	-2.820439	0.357890	-1.956951	0.387506	-2.827003	1.963664	0.258272	-1.646176	-1.610443	1.185220	0.120898	1.285265	2.359330	-0.417510	-1.231969	-0.992612	1.053415	2.348131	0.071971	0.226477	3.618221	0.214028	-4.813533	5.055731	0.787901	1.410167	0.724269	0.439117	-0.362664	-0.258560	-0.334545	0.139219	-1.772982	0.170202	1.517776	1.041926	0.874002	0.206318	-0.106589	0.848451	1.134701	0.239934	1.890955	-4.428707	-2.117076	-0.885381	-0.318392	-0.499161	-4.188738	1.112209	-0.788614	-1.521630	2.248591	2.526942	-1.765306	-0.272670	-0.888601	2.193098	4.890834	-2.890130	0.477368	1.402546	0.627200	0.333070	-0.598253	-0.987911	0.397584	-0.009348	0.896531	1.358437	-1.286075	-4.367893	2.676732	0.286747	-7.217913	-2.575505	-0.799966	1.284874	0.220738	-0.004371	-1.162771	0.921766	1.537789	13.799348	-7.339263	4.846282	-1.359839	-1.003605	-6.357283	4.034604	-6.155485	4.094315	0.371863	-2.750076	2.673182	-1.532329	0.837586	-1.747376	0.140576	2.467218	5.390451	-7.038756	-2.378309	0.098002	-1.905944	-1.976006	-3.765167	5.146409	2.125795	-0.724023	-3.597278	3.549357	-1.121194	0.592520	-1.244594	-2.836477	7.206083	-0.403063	
-2.337537	-0.016694	0.209209	-0.489405	1.325141	-1.108872	1.280583	-2.575113	1.375668	-0.335294	3.200180	-3.389628	2.556995	1.748314	-1.938538	-1.636877	1.263685	0.222749	3.028701	-3.786421	2.792756	0.341039	-0.944196	-0.276409	-1.064322	-1.111696	1.292318	-2.470038	6.593700	1.045974	-0.672108	-1.921016	0.349710	0.804042	1.818051	-1.432225	1.544406	2.372331	-0.349343	-0.991375	-2.523146	0.168115	-4.705445	-8.811191	5.492346	1.745616	2.796475	-2.196600	0.493777	1.437372	0.535050	-0.864543	-2.736553	0.570194	0.147701	1.171918	-0.381014	-1.404243	-1.502411	0.859696	0.099591	0.016288	-0.156887	-0.029089	0.055043	0.355133	0.081633	-0.107963	0.120225	-0.034715	-0.000458	0.023693	0.658553	1.321269	1.235895	0.530836	-0.984313	2.145370	-0.960471	-2.351290	0.610179	0.600244	-0.231873	-0.214737	-3.262694	2.595459	-0.633319	3.040712	2.119156	-0.976642	-0.137708	1.222156	1.028419	0.283301	0.260985	4.053090	0.902019	2.272107	-0.273483	-0.424844	-4.043137	0.145873	-2.809583	1.925881	-0.256159	2.412672	1.357946	1.261618	0.076912	0.261459	-1.688873	-1.223270	0.657228	-7.404558	5.473051	9.445391	-6.475059	-0.474030	-3.513969	-0.804199	-0.121729	0.249679	-0.071547	-0.000788	1.056652	-0.388112	-0.600753	-1.653701	-2.566028	0.474563	-0.686492	0.071919	-1.857229	-2.743385	2.144792	-0.678461	-4.520347	-0.765161	7.455439	-6.187194	-1.410921	-8.634872	-2.166952	-2.433538	-1.953323	0.485225	1.787900	-0.082400	-0.343389	-0.725172	-2.647151	-3.073368	1.334406	-1.191292	0.410756	1.067736	-4.335860	2.179499	0.162481	5.552177	2.843769	1.487444	1.679528	-0.292669	-2.043375	0.294900	1.247277	-0.420263	0.463622	4.110783	-1.807179	0.731726	-7.377144	-1.086372	-5.450332	2.947413	-0.260744	3.773102	3.669239	-1.454784	0.297472	-1.259487	-3.600402	0.115280	-0.968648	3.144763	-1.374245	-1.619106	2.449601	-0.047238	0.064355	0.038270	1.791448	-1.952226	-0.560832	3.627446	0.853311	1.289334	-0.052682	0.641804	7.095421	0.263963	-0.120327	5.181290	0.500548	5.688876	-5.058541	-0.256739	-2.100935	0.706711	-0.656802	1.156492	0.865947	2.492775	1.024679	2.138602	-5.737500	-6.297462	-3.756065	1.141733	-1.213421	-3.868654	0.870965	1.117712	2.639499	0.406826	-2.240054	10.338417	2.819356	8.664550	6.979166	1.794183	3.170455	1.652202	3.686912	-0.635139	-3.507943	-2.644884	-0.247491	-2.805441	-5.398438	1.619857	3.234951	2.822048	-0.093764	-2.024959	-0.826346	-1.572562	-9.695987	1.718264	-3.913220	-1.435568	
-1.475599	-0.784219	1.925119	2.314341	0.196040	-2.897050	0.735438	-0.482548	2.104499	-0.603055	1.169779	1.573897	3.253705	3.353025	3.065529	0.288354	-0.822872	0.813062	-1.962232	-1.928776	2.905706	1.497454	0.189832	4.093124	0.588725	-0.596418	2.872391	-4.850134	-4.495345	2.790112	-3.280409	-0.448168	3.444380	-1.191273	2.838028	2.084568	1.813441	1.947191	-0.553159	6.930368	12.139616	-1.686056	0.518500	1.497471	-1.093323	1.638397	2.657310	-2.405159	-2.239187	-3.540415	0.469135	-1.268137	-3.659602	0.143047	0.316418	-0.435907	0.199278	-2.099258	-2.193632	1.720410	0.324401	-0.120779	0.213732	-0.211434	0.170553	-0.008158	-0.313981	0.281102	0.281748	0.140126	-0.224639	0.330837	1.091022	-0.069915	-1.659509	1.282634	1.569144	2.697150	-1.733232	-2.192343	1.371259	1.127495	3.980596	0.065291	0.656959	0.340367	-0.958452	-0.720226	-0.554461	-2.625885	0.483438	0.182558	-2.253226	-1.728582	-2.453423	-4.137387	-6.830879	-12.826417	1.452853	0.629723	-3.037874	-0.301789	-0.644512	1.084894	1.062747	-0.979983	0.398708	1.148946	-0.424372	-0.140861	-0.237390	0.110207	-1.101478	0.585939	1.080919	-1.307104	0.338275	1.114111	-1.703819	-1.419232	1.925023	-1.424173	-0.820233	2.585291	-0.938955	2.852816	-1.171653	-0.574303	-4.255637	-1.080697	2.070415	-3.992102	-1.527746	-3.410437	1.655348	-0.289979	0.391299	-1.091217	0.740703	0.794754	0.300905	-5.966263	-1.625054	-2.519249	0.290444	0.829257	-5.524287	-0.141011	-0.854387	-4.978377	2.280528	3.293086	-1.067549	0.678612	0.004761	-0.144604	-5.435221	4.867302	-0.239110	-3.772258	-2.759242	1.114143	-0.724504	-0.259198	-1.392161	-0.166314	1.430699	-2.647272	1.110703	4.237923	-1.249098	0.304475	0.267144	-0.156512	1.179759	0.582752	-0.765110	6.071605	4.740951	-1.432744	-0.040983	-1.128530	-4.486063	-0.170692	0.477862	-6.558849	-0.957861	1.359371	-0.907839	-0.048437	-2.388929	-0.305383	-4.356625	3.182438	0.630391	-4.014504	-1.712398	-1.153415	2.648923	-0.079769	-3.027443	1.142437	0.216724	-3.504718	3.292896	3.235167	-3.413389	-1.761300	-0.715893	1.845370	-2.482874	0.987463	0.385815	1.791145	2.643858	-2.270345	-0.840809	-2.838527	1.908482	-1.282508	-0.884209	-0.953655	-6.132971	1.344582	-1.164711	-1.833049	1.159683	3.543154	7.808688	-0.860061	6.070559	1.463026	0.584848	1.974899	2.162939	-2.464310	6.027426	-1.338884	0.120358	0.226697	6.507871	0.562940	3.577713	5.403719	0.732651	5.189522	5.015844	1.724168	-0.234553	-4.247175	-5.799280	5.435126	
-1.495940	-0.537632	1.078889	0.817416	1.346395	1.283722	1.715409	-1.860929	-2.768143	0.732609	0.097034	-2.673630	-0.011087	2.201498	-1.760122	-0.174743	-0.372767	-1.949443	-0.813464	-1.460585	0.802061	-1.728025	-0.120139	0.354474	-1.254416	-2.285636	0.148517	4.346956	1.134340	2.611392	0.405053	1.197939	-2.573718	0.610655	-4.522022	-3.227133	0.140957	-0.104503	-0.072444	-1.559257	-4.233034	-0.107385	2.278472	3.566207	-2.969432	-0.086552	-0.501460	0.514235	0.364044	1.514211	-0.126841	4.184485	7.322081	0.008340	-0.489165	-0.731158	0.520388	1.465818	2.783594	-1.679603	0.265058	-0.308424	-0.100461	-0.026612	0.017241	0.100720	-0.224956	0.146386	0.003211	0.326847	-0.110310	0.037146	-1.053794	-0.800196	0.432967	0.358666	1.276063	0.696293	0.116635	-0.217588	0.772932	-0.215410	0.706392	-0.575977	0.402493	-0.231162	-1.200905	-1.449203	-1.268723	-1.454086	-0.860390	0.813173	1.559754	-0.210063	-1.255580	1.915490	1.025151	4.406864	1.105506	0.448821	3.140766	0.236747	0.297423	0.075529	-0.348760	1.231669	1.291537	-0.619935	-1.291602	0.517910	3.309879	1.113298	2.038882	2.715336	-2.466444	-3.760615	3.674920	-0.164444	2.191597	-0.716541	-1.790335	1.467348	0.762023	-2.291663	-0.467322	-0.520069	1.380570	-0.034666	-3.406411	-0.179301	-0.082507	-3.299849	-1.333077	0.753668	-0.528500	0.963397	-2.075845	-1.607866	-6.524514	3.734221	-0.178813	-1.275870	-1.850427	0.015672	-0.517300	-0.410164	-2.223756	2.182636	3.916469	3.110329	-0.344005	-1.458803	0.366018	-0.292810	-6.265933	1.699645	-2.495457	1.823444	-1.363265	6.405455	3.396827	2.665433	2.817368	-0.095411	-3.869040	0.081762	1.271686	-1.010986	-4.379473	-7.960830	0.290841	0.554323	-2.442786	-0.516943	0.413357	1.014258	-0.004427	-0.839257	-0.115781	-0.042953	-1.457895	-1.374446	-3.532052	1.551817	1.392197	3.109018	0.791819	1.972404	-1.853527	1.140487	0.245742	-0.942350	0.349687	-0.131415	-0.194500	6.561775	2.287103	2.821646	-1.067322	0.179815	2.466058	0.166737	1.305492	2.703942	-0.354582	-3.156701	1.453855	-0.466956	4.138713	0.696420	0.104496	-0.616388	0.045912	-0.289433	-0.183336	0.200469	-5.430791	-3.529735	-1.850261	2.270925	-1.938775	-0.946503	4.384559	-3.988974	-1.692795	-0.246901	-1.119418	1.003405	1.675270	-3.699065	2.942522	-3.373781	3.936263	5.227366	1.412683	6.851922	1.710898	-0.838515	-1.045291	1.816011	-6.312717	-1.411715	1.251526	0.666815	-2.519466	-0.954008	-0.081090	-1.149224	-0.542844	-0.765258	-3.666325	-4.235654	
-0.229955	1.517757	0.825941	1.980058	-1.825543	1.126170	0.848943	0.877372	-0.820449	-1.640756	-2.256263	-4.108039	2.026219	0.255889	-1.304240	-0.830619	-3.225394	-0.461351	1.439118	-1.782171	2.569282	-2.446604	-1.098343	-0.816816	-2.082511	1.088152	2.608652	1.973294	-0.648531	0.316730	-1.661121	-0.530832	2.475923	-0.353853	1.054666	1.153054	0.312771	-0.162566	-0.184409	-1.788031	-2.678839	-0.310263	-1.908169	-3.701594	2.420158	1.168732	2.328510	-1.392556	1.735070	1.935146	-0.110636	-0.923716	-1.225024	0.172777	-1.303173	-2.336751	1.595155	-1.678747	-2.589612	2.218919	0.114309	0.362816	0.227441	0.226936	0.034917	0.158105	-0.249267	0.234840	0.368596	-0.063212	-0.641071	-0.163917	-0.861889	-0.602419	2.055161	-1.051012	1.373916	-1.516264	-0.492995	1.502926	-0.192386	0.749106	0.436047	0.175458	-6.133591	3.994352	0.052571	0.145865	0.415547	1.125542	-0.417989	-0.246787	0.356855	0.173677	0.140225	3.850078	1.759561	2.148402	0.516854	-1.506715	0.090463	1.903894	7.114483	-4.746760	-0.821112	-8.167300	-3.493213	-3.481198	1.012024	1.856325	-1.102892	-0.378527	-1.812496	-2.710976	2.529058	3.965101	-3.588835	-1.191205	-4.717979	0.773056	-3.198763	3.637368	2.088293	0.864008	2.277177	-0.568494	0.819669	-1.470898	-3.483148	1.049774	1.033908	4.868565	-1.624697	-3.858468	3.059680	1.560398	6.246343	-0.860160	-2.199925	1.763323	0.658708	-5.386020	-1.415896	-2.633853	-0.121429	0.034239	-1.940107	0.211339	0.818597	-0.684264	-3.210035	-2.410969	0.160274	-0.290140	3.324419	-1.103329	-2.861933	2.667900	1.342697	0.337638	-1.289656	1.342527	1.418535	-0.982315	-3.556759	-0.368969	-0.531628	-3.126474	1.188024	1.729227	-0.587824	-0.455416	-2.676982	2.020440	2.771996	-0.221592	1.049525	-4.489791	-1.353523	0.149500	0.690471	-1.269992	-5.992518	1.817218	-0.788558	3.549043	1.009617	3.443370	-1.616528	1.548640	0.420309	-1.379494	-2.068768	1.046741	-0.404348	8.227917	2.642656	3.065969	0.395623	-0.199504	1.499199	-0.504455	0.181747	-2.623608	2.365660	3.034656	-4.250599	-1.271324	0.269540	1.790533	-0.876093	1.349219	1.351395	-6.426882	-1.591140	-2.602839	1.711028	-4.209507	-4.064481	1.371140	7.060997	0.006615	4.564608	-3.847798	-0.390553	3.625085	2.877760	3.159855	6.292354	-1.453456	6.552512	-4.741880	-2.399524	-4.096142	2.134335	-7.119015	0.775307	6.984011	7.804008	3.903390	-8.189443	-0.645183	2.884332	-0.632969	2.023363	-3.657246	7.833442	0.912383	-0.738014	0.178129	-2.154828	-0.877610	
1.989565	-0.148576	-2.664824	-1.397128	-3.479727	-0.771015	-2.003988	0.539628	-2.172016	-2.475386	1.423903	-0.948584	-2.556702	-0.166735	-0.844097	0.967319	0.424035	-0.856419	0.179729	-0.733983	-0.149499	-1.091680	5.015292	-3.229198	-1.711691	1.695587	-2.212972	5.737028	-0.429116	2.821477	2.160231	-1.215776	-0.897769	-1.363457	-1.525009	0.794587	2.499375	2.956091	0.235466	1.204212	1.853440	-0.524891	0.055946	0.951090	-0.472390	0.850801	0.868172	-0.611350	-1.243420	-2.023295	-0.262721	-0.691093	-1.706554	0.124270	-0.245252	-0.016718	0.152574	0.291617	-0.012877	-0.108415	-0.445790	0.095425	-0.294446	-0.059460	0.495904	-0.233964	0.231847	0.017518	-0.513436	-0.099372	0.091539	-0.022129	0.988792	0.876101	2.517528	-0.216567	-0.017594	1.301552	-4.093017	-2.908503	0.458760	-0.451534	1.569561	0.881089	-4.645392	3.536063	0.687572	8.233588	3.882150	0.912236	-0.497201	0.428178	-1.484498	0.078691	-0.129132	-1.255809	-0.131745	-1.665664	-0.310431	0.634012	1.828856	-0.965558	0.109996	1.205333	1.462211	5.297165	3.529176	-1.068300	0.758157	0.910228	2.268313	2.077578	-0.442709	3.612332	-0.936236	-2.204809	3.310584	1.319894	1.953663	-0.139915	0.115148	1.550191	1.719837	3.629115	1.454986	1.304478	0.565262	0.207607	2.567720	0.370926	-0.658303	4.610167	-0.747334	-0.310003	0.956798	-0.034258	-2.785092	1.040095	-7.227025	2.913375	-0.983554	-4.822111	-2.685793	-1.086126	1.410237	1.281530	2.567153	0.195859	-0.340718	1.269944	2.038859	2.394950	-0.053708	-0.046565	-1.634989	0.663694	-5.527758	3.213573	0.536365	-1.003422	-0.973756	-0.735863	0.245349	-0.580417	-2.605543	0.158646	-1.367367	-0.854636	-0.692668	3.005858	-0.401819	-0.143189	-2.105278	-0.483794	-3.401712	2.647643	0.213406	3.778055	3.103117	-0.536638	0.092112	0.782639	1.602418	-0.906158	-0.389748	-4.881212	1.178554	-1.371418	1.384746	-0.271955	-0.837734	-1.285219	2.037582	-1.337708	-0.501715	-3.332862	-3.112173	1.007881	0.316660	1.424154	0.744859	0.190297	-0.660542	0.545509	-0.971728	0.837157	-0.466348	0.827138	1.440973	-0.406923	1.299803	0.191357	-0.039045	-1.904211	-1.121653	-1.072651	3.940721	0.339794	-1.769814	0.950865	-5.217770	-0.224753	0.264222	-4.674738	-3.517126	-1.681966	-3.458272	-1.022940	7.011663	2.560174	-1.374493	-5.814421	-1.846946	-3.781422	-2.095029	-4.806674	-5.561833	-0.776861	-0.145688	2.066886	-0.819297	1.243825	0.856977	1.611568	-0.507610	6.628639	2.194580	-2.499867	2.528846	-1.512125	-2.482801	0.304854	
1.657760	0.376285	2.268063	-3.512870	-1.837957	-2.833506	0.929840	-0.458657	1.858062	1.664452	-0.908193	-4.666702	2.554272	0.411834	-0.072210	-1.657397	-0.776483	0.750377	1.827430	-3.092002	3.352503	-0.535717	2.582214	-1.408564	-0.506781	-2.376175	0.408458	-2.706666	-1.965722	-4.112323	0.669920	3.625041	2.619843	-1.596620	0.299339	1.210602	-0.521630	0.078808	-0.090257	1.029234	1.756950	-0.241275	-2.127215	-3.373076	1.714071	3.618359	7.440366	-5.139982	-1.366325	-2.046222	0.347076	0.826316	0.844615	0.122570	-5.016007	-7.756812	4.004101	-0.767592	-2.684377	1.870049	-0.043106	-0.160863	0.274340	-0.172132	0.008555	0.040128	-0.190820	0.247392	0.289898	-0.248172	-0.201614	0.022567	-0.831013	0.688748	2.804328	0.143128	1.956336	2.053419	1.646973	-1.374121	-0.710360	-0.476110	3.063580	0.500080	1.910736	-0.526357	1.073101	3.891465	1.897848	1.205780	0.007648	-0.320708	-2.523318	0.788390	-0.403735	3.310421	0.096257	-1.710364	-0.283300	2.763832	14.330203	-5.587601	1.362532	0.642563	0.535944	2.131284	1.426080	-1.590015	-2.192842	-0.021237	0.210509	0.774779	-2.175441	1.186835	3.283571	3.962150	-2.814633	0.783047	-0.675726	-1.057928	-2.211561	2.209514	1.041578	-0.422099	1.480675	-0.314362	-0.732197	0.769793	0.322769	0.224727	-1.717272	0.868425	-5.204943	-6.778114	4.777215	1.024101	4.885480	-0.244996	0.230281	0.355933	-0.038494	-8.860261	-3.138932	-3.319749	-0.636592	1.112523	1.774980	0.819406	-1.404614	1.502973	-0.454453	2.965087	0.241904	0.104543	0.124788	-0.455163	-3.963601	2.624871	0.145640	-4.124247	-2.824032	1.353937	-0.320284	0.678308	-0.749596	0.594497	-1.991051	3.512292	-0.879498	-1.190864	-0.790794	-0.417244	-1.514473	1.211325	-4.541028	2.484776	-0.973443	-0.017584	0.709846	-0.535629	0.823462	-0.846495	-2.606772	-0.625870	-0.751864	-3.015109	5.630148	9.184598	-5.048402	-0.157195	-2.889281	1.109835	2.892384	-1.432135	0.591375	-1.477380	-0.388630	-0.169953	0.023998	-0.069330	-2.115607	-0.443490	0.509633	2.373314	-1.241320	5.266143	-3.464474	-0.219992	0.382208	0.239302	-3.153182	1.625080	0.154124	1.100672	0.950197	-0.334223	2.856258	-2.697673	-3.040595	-2.269731	-15.019667	7.171126	4.331244	-3.819716	-1.420602	-3.573313	3.919958	-1.879936	8.280162	-2.161606	4.940684	-5.018396	-1.889439	-1.850928	-1.675811	-6.092603	-4.038235	1.990963	2.321494	0.710170	1.170350	3.572753	0.436423	4.946609	2.414473	1.116495	2.736856	-0.493244	0.862179	2.968403	-2.230165	-0.952155	
-0.879490	0.800643	0.347297	0.695720	0.162792	0.706017	1.597649	-2.410557	1.034487	-3.057419	-2.897128	2.541288	-0.566673	2.110390	1.631531	-1.094447	-0.945703	-0.320620	-1.320835	-0.169194	-1.001827	-1.949265	0.102770	0.874078	-1.353594	1.644490	-2.227100	1.083371	0.421256	1.304607	1.388260	1.173241	-1.586852	0.323343	-0.139815	1.548174	0.754241	1.655503	-0.005688	-0.855776	-3.750065	0.146678	-6.265576	-15.300664	9.097367	0.618521	0.679817	-0.483513	-1.169042	-1.521185	0.306388	0.734775	0.587892	-0.066668	-1.863367	-3.541651	2.173559	1.704572	3.303966	-1.769267	-0.380049	-0.180612	0.181461	-0.135147	0.442760	-0.019337	0.242277	0.109382	0.205203	0.263147	0.171177	-0.051814	0.764945	0.017705	-2.103843	-0.347956	0.845276	-1.275514	-1.378230	-1.273219	0.725601	0.326300	2.498635	0.051475	-1.126049	-1.195015	-1.334393	-0.285386	0.303462	-0.179351	0.026404	0.585041	0.823768	0.488316	0.324115	-1.521283	0.347939	4.367585	-1.335220	1.211405	0.024397	-0.394728	0.370523	1.305820	1.452019	-0.025483	-0.024906	1.768796	1.343661	-0.303204	2.009300	-0.817524	0.491300	-8.399243	7.682630	15.779913	-10.326395	0.528377	-2.102914	-2.019451	3.530523	-2.140303	-0.383459	-0.864204	-0.066109	-1.328625	-0.928994	-1.083244	0.526145	1.133245	-0.406695	2.286967	-1.671915	-0.909910	1.525495	-1.061797	0.639984	1.461317	-3.922116	0.766211	0.543906	2.745260	2.288521	-1.421811	-0.628885	1.379120	1.192671	-0.802140	-0.772157	-2.714356	1.481973	1.331201	-0.829288	-0.874632	-4.001650	1.771136	-0.660378	-0.583548	-0.980058	2.269142	1.090588	0.048530	0.550906	0.250617	1.531007	0.206541	-1.159264	0.135811	-1.161286	-0.439244	0.779264	0.981183	0.641117	-0.919004	-1.003482	1.360897	0.636773	-1.540802	-0.628458	1.242733	-0.834371	-0.800004	-5.311731	-0.923373	-0.082135	-4.062377	3.222544	2.270779	-1.080183	-1.338633	2.936277	0.893164	0.033234	-0.794217	-0.591871	3.650297	1.562592	1.382753	0.119967	0.302976	0.870464	0.741555	-0.796992	3.252514	-1.289964	-3.988166	2.648053	-0.143117	-2.939441	0.327007	0.478598	-0.465463	-0.827335	3.880937	1.137933	1.230578	-4.692015	-1.780811	2.027750	-1.152802	-4.440607	-2.373359	-1.761302	1.627699	0.752587	3.720076	1.487939	9.146767	4.556642	2.204899	-2.137700	-0.244500	-0.086046	-3.660480	-0.746942	4.141214	-1.877255	-2.043805	-3.522798	-2.611788	-2.779249	0.346551	3.961736	3.374989	-3.407166	4.794299	-4.997184	2.122055	-2.116491	3.765210	1.251761	-2.249244	