-142511.303400
-142511.025767
-142510.896621
-142510.917684
-142511.026757
-142511.274729
-142509.991757
-142511.314305
-142510.665431
-142510.681002
-142511.395616
-142510.773130
-142510.832215
-142510.370330
-142511.182436
-142510.855664
-142511.341531
-142511.159094
-142511.291483
-142510.773338
-142511.621427
-142511.809772
-142510.901317
-142510.368826
-142511.763065
-142511.111322
-142510.204372
-142510.740184
-142511.708552
-142511.093701
-142511.403443
-142510.532947
-142511.391141
-142510.934108
-142510.524157
-142511.576757
-142511.249499
-142511.242251
-142510.687064
-142510.803358
-142511.418665
-142511.367108
-142511.295538
-142510.858751
-142510.736900
-142511.036555
-142510.854079
-142511.940444
-142511.100581
-142511.206906
-142506.066297
-142507.163497
-142507.132641
-142505.422148
-142506.699019
-142505.745307
-142505.788285
-142505.877005
-142506.971477
-142505.841261
-142505.289874
-142506.641778
-142506.095357
-142505.510964
-142505.804904
-142505.947930
-142506.154895
-142506.135522
-142505.417797
-142507.152391
-142505.998588
-142505.762028
-142504.946719
-142506.610899
-142505.042700
-142505.376641
-142505.526841
-142506.927617
-142506.887701
-142507.686577
-142506.146624
-142505.650708
-142504.544993
-142506.833021
-142506.870610
-142506.196399
-142507.330152
-142506.702605
-142505.106337
-142507.183858
-142506.423498
-142506.839134
-142506.857980
-142505.459241
-142505.410232
-142507.150753
-142505.172390
-142505.588861
-142506.882582
-142505.624629
-142501.439924
-142501.786539
-142502.288221
-142502.327729
-142501.690455
-142501.164849
-142501.213751
-142501.933502
-142501.705114
-142501.680140
-142501.325047
-142502.491621
-142502.265507
-142502.192955
-142501.592822
-142501.128155
-142501.178466
-142501.475952
-142501.689835
-142501.190417
-142501.608600
-142501.142119
-142500.783023
-142501.504754
-142500.848067
-142501.964717
-142501.435811
-142501.688693
-142501.736577
-142501.016643
-142501.770662
-142501.542508
-142502.118907
-142502.181349
-142502.495820
-142501.341727
-142502.578205
-142501.097344
-142501.105321
-142501.878045
-142501.885161
-142502.116766
-142501.158434
-142501.795367
-142501.270247
-142501.700887
-142500.977343
-142502.684534
-142500.534686
-142501.255963
-142491.244585
-142491.589741
-142491.087555
-142489.608997
-142491.743287
-142492.343325
-142490.309956
-142493.137119
-142491.444729
-142491.297191
-142492.087041
-142490.516276
-142490.416664
-142492.075218
-142490.987164
-142492.015837
-142491.882247
-142490.665520
-142491.702256
-142491.078679
-142493.018406
-142491.400546
-142490.602434
-142491.099801
-142491.554475
-142492.095550
-142491.643422
-142491.778970
-142491.800155
-142491.413440
-142491.582479
-142490.817517
-142492.432634
-142492.310364
-142491.479039
-142490.281485
-142490.659919
-142491.546547
-142491.164538
-142491.054521
-142492.421188
-142492.258220
-142491.154227
-142492.246774
-142492.221664
-142491.994012
-142491.156238
-142492.026675
-142492.097604
-142492.057972
-142483.086488
-142483.897291
-142482.661670
-142483.898154
-142483.059632
-142483.461852
-142483.142378
-142484.536606
-142483.094056
-142485.374600
-142484.138624
-142483.843284
-142484.161922
-142482.308487
-142485.819211
-142484.447013
-142483.632410
-142484.409900
-142484.294892
-142484.346831
-142485.222945
-142484.237593
-142483.059486
-142484.379329
-142484.151630
-142481.958454
-142484.594339
-142484.092320
-142483.644103
-142482.838297
-142484.554877
-142482.954139
-142482.618174
-142483.113950
-142483.356318
-142483.574541
-142481.990317
-142484.114906
-142483.491097
-142484.877325
-142486.025870
-142485.095012
-142484.605141
-142482.601401
-142484.323730
-142484.802001
-142483.442496
-142484.202636
-142484.757163
-142484.562801
-142474.875384
-142475.306527
-142476.833449
-142474.925002
-142476.434487
-142476.815854
-142476.941465
-142478.167242
-142476.763637
-142476.930680
-142477.798947
-142476.030386
-142475.635277
-142475.371007
-142473.669625
-142476.426104
-142476.114577
-142475.518974
-142477.406738
-142476.235493
-142477.039913
-142477.565293
-142474.770809
-142476.204657
-142475.491125
-142475.278520
-142477.663196
-142475.533551
-142474.564514
-142475.506162
-142477.405103
-142477.083144
-142477.650800
-142475.674238
-142475.173930
-142475.350067
-142477.096846
-142474.568436
-142475.646083
-142478.191023
-142475.828670
-142476.041402
-142474.858534
-142476.393802
-142475.253581
-142477.482744
-142474.566579
-142475.335194
-142476.151731
-142476.864643
-142501.050804
-142501.595539
-142502.980830
-142503.232276
-142500.979547
-142502.249388
-142502.012687
-142500.886000
-142502.359585
-142502.911679
-142502.237370
-142502.415930
-142501.244762
-142502.215792
-142501.984931
-142501.025256
-142501.517204
-142500.233211
-142502.331399
-142502.672752
-142502.533608
-142502.233596
-142502.245623
-142501.540198
-142503.947162
-142502.841743
-142504.062860
-142503.655208
-142504.076470
-142502.660944
-142501.550222
-142503.444684
-142500.811323
-142501.379326
-142501.772429
-142501.868210
-142502.682051
-142502.416967
-142502.476542
-142503.379997
-142502.460082
-142501.592079
-142503.586673
-142503.002419
-142503.614558
-142503.534017
-142502.280279
-142502.071030
-142502.870210
-142502.966351
-142501.882967
-142502.369030
-142502.780975
-142502.176339
-142502.192363
-142500.849097
-142503.683293
-142501.964397
-142504.081591
-142501.200064
-142501.527301
-142501.129491
-142503.659435
-142501.666800
-142501.740527
-142501.355376
-142502.326793
-142503.235689
-142501.868897
-142503.289789
-142502.732845
-142502.080071
-142502.940814
-142501.904675
-142501.108099
-142500.758586
-142502.705298
-142502.055711
-142504.731146
-142502.734026
-142501.260805
-142501.738328
-142501.945404
-142503.646768
-142503.019993
-142503.759267
-142500.730952
-142501.506402
-142501.272044
-142501.857648
-142502.335197
-142503.651235
-142502.809879
-142502.172691
-142504.077674
-142503.501925
-142501.633406
-142503.433584
-142503.078015
-142501.966733
-142492.537234
-142492.124465
-142490.995933
-142492.022314
-142492.050403
-142490.850886
-142490.564625
-142491.863733
-142491.255820
-142491.916595
-142489.788819
-142491.350040
-142492.264825
-142492.321420
-142491.472128
-142490.748267
-142491.534311
-142491.253609
-142492.507474
-142491.791081
-142491.251111
-142492.360796
-142490.938265
-142492.370934
-142491.559689
-142490.736346
-142491.787987
-142492.911176
-142491.762341
-142491.576001
-142491.355985
-142490.972178
-142491.668337
-142490.347516
-142493.344581
-142492.062418
-142491.884129
-142492.069200
-142492.466698
-142492.328649
-142490.089598
-142491.410553
-142491.696001
-142490.939814
-142491.857185
-142492.100212
-142492.528910
-142493.392547
-142490.235426
-142491.635075
