-142506.408591
-142505.932399
-142508.203663
-142505.284284
-142509.762105
-142505.484693
-142505.341515
-142505.696918
-142510.047574
-142505.199037
-142505.474436
-142504.417130
-142505.441915
-142510.227994
-142509.926220
-142506.232814
-142509.009991
-142507.143100
-142509.442598
-142509.795274
-142505.994591
-142510.463137
-142509.094095
-142510.103803
-142506.025105
-142510.693460
-142510.306133
-142509.078258
-142506.081749
-142505.211444
-142506.060595
-142510.105935
-142506.049631
-142505.618544
-142506.302275
-142505.308241
-142509.296299
-142505.146739
-142505.296858
-142509.350831
-142506.439703
-142509.884315
-142505.469034
-142508.292647
-142505.596065
-142506.359735
-142505.954711
-142505.253735
-142509.680862
-142508.018072
-142503.725667
-142502.929289
-142501.084109
-142505.496234
-142505.562945
-142507.048065
-142501.434385
-142505.047780
-142501.982482
-142505.417203
-142506.070070
-142507.316906
-142505.446950
-142504.848924
-142505.588151
-142502.701880
-142507.405643
-142506.067210
-142503.348023
-142505.552580
-142506.805592
-142506.739902
-142504.472997
-142503.743774
-142502.278900
-142505.185875
-142502.093743
-142506.988055
-142505.896050
-142501.840883
-142505.252906
-142507.396993
-142505.421820
-142505.891143
-142506.207467
-142507.765245
-142507.192838
-142505.738270
-142505.576945
-142504.227257
-142507.702389
-142502.031683
-142503.316827
-142505.085041
-142507.687698
-142507.741699
-142505.345587
-142506.754519
-142506.222800
-142505.230608
-142500.431609
-142500.477714
-142500.196311
-142500.979211
-142501.792075
-142501.778870
-142501.323330
-142500.666338
-142501.316166
-142501.777766
-142501.462280
-142501.439311
-142500.876484
-142501.452094
-142500.696616
-142502.271423
-142501.177985
-142501.609667
-142500.718644
-142502.012619
-142501.769042
-142500.857549
-142502.161002
-142501.070656
-142501.027597
-142500.346545
-142502.124606
-142501.721481
-142501.281898
-142501.477999
-142501.611193
-142500.853295
-142502.137995
-142500.911907
-142501.409146
-142501.670682
-142501.013838
-142500.721135
-142500.935804
-142502.059433
-142502.005272
-142501.415401
-142501.688600
-142501.749965
-142500.545524
-142500.890589
-142501.048200
-142501.051184
-142501.444847
-142501.991208
-142491.720827
-142491.210032
-142491.069814
-142492.611609
-142492.028630
-142491.838814
-142490.717621
-142491.239647
-142492.144523
-142491.340729
-142491.416296
-142492.283605
-142491.849903
-142492.105940
-142491.112426
-142491.438806
-142491.436720
-142492.218910
-142492.469160
-142493.562892
-142491.611119
-142491.054855
-142491.713911
-142491.717917
-142491.327715
-142491.879468
-142491.599508
-142490.783899
-142491.876668
-142489.724374
-142492.060531
-142493.011850
-142491.064630
-142490.586581
-142491.399971
-142491.506289
-142491.473840
-142491.787654
-142491.708489
-142489.632626
-142491.362690
-142490.947113
-142490.429132
-142491.228425
-142490.910412
-142492.355165
-142491.580288
-142491.789705
-142491.019813
-142491.789739
-142483.948128
-142483.283232
-142484.017594
-142483.480189
-142482.701035
-142482.600449
-142482.410856
-142484.861425
-142482.878446
-142483.821431
-142484.334410
-142484.553537
-142483.193478
-142484.558824
-142482.930380
-142483.407046
-142483.717159
-142484.284792
-142481.016364
-142483.327379
-142484.348625
-142484.278809
-142483.970081
-142483.273468
-142484.520849
-142482.625433
-142483.227924
-142482.950845
-142482.897138
-142484.790864
-142483.729608
-142483.550827
-142483.532776
-142481.496665
-142482.988259
-142483.330114
-142485.272359
-142483.038204
-142485.527925
-142483.998270
-142483.625693
-142483.672277
-142483.477788
-142482.524466
-142481.707731
-142483.891333
-142482.770001
-142484.021685
-142483.817431
-142484.612057
-142476.982333
-142476.403445
-142475.523457
-142475.255382
-142475.966340
-142475.084936
-142476.830723
-142475.263275
-142478.418360
-142476.587749
-142477.745439
-142476.396536
-142474.698870
-142475.711754
-142475.634081
-142476.306814
-142476.174755
-142475.901631
-142476.510430
-142475.871249
-142475.597319
-142476.078855
-142475.950702
-142474.747885
-142475.062684
-142474.574635
-142476.859573
-142475.424049
-142476.184733
-142473.954741
-142477.190532
-142475.737392
-142475.573662
-142476.880697
-142476.950127
-142477.091380
-142476.140441
-142476.944885
-142474.154265
-142476.432345
-142477.246125
-142475.235150
-142475.041001
-142475.796176
-142477.377689
-142477.433155
-142475.453851
-142478.132492
-142475.516949
-142477.009710
-142501.305288
-142501.428277
-142501.671786
-142499.892581
-142502.582931
-142502.785947
-142500.971247
-142501.150147
-142501.148453
-142500.977726
-142502.048750
-142503.743151
-142502.920764
-142501.380030
-142501.577589
-142500.509622
-142501.828779
-142501.942013
-142501.693163
-142501.285162
-142501.142289
-142502.666122
-142500.132752
-142502.008367
-142501.467681
-142501.882359
-142500.239593
-142500.480429
-142502.160109
-142501.699215
-142501.942772
-142501.703710
-142500.920689
-142504.803745
-142499.890478
-142501.783640
-142500.551996
-142501.450311
-142502.046856
-142500.121563
-142500.746630
-142501.295305
-142501.271458
-142501.593363
-142501.621789
-142502.331909
-142503.067827
-142502.069045
-142502.634607
-142501.421221
-142483.359277
-142483.991858
-142482.345700
-142481.403522
-142483.587030
-142484.120055
-142484.612386
-142483.151347
-142482.455766
-142482.160375
-142481.868857
-142483.451495
-142483.608837
-142483.847836
-142483.958988
-142483.489639
-142483.474383
-142482.954429
-142484.015911
-142482.796817
-142483.077939
-142483.993630
-142483.478020
-142484.601477
-142482.062268
-142482.398534
-142485.063322
-142480.275548
-142483.392311
-142483.869308
-142483.767520
-142483.022764
-142483.005355
-142483.057753
-142483.329689
-142482.464075
-142481.404942
-142483.278560
-142482.957292
-142484.568898
-142482.848912
-142484.627779
-142483.906549
-142482.767420
-142483.223402
-142482.336003
-142484.102734
-142484.074552
-142484.100635
-142482.007969
-142477.729867
-142475.444167
-142475.971055
-142478.200989
-142476.037489
-142475.598712
-142475.407492
-142477.014216
-142478.179398
-142475.231500
-142477.648195
-142476.096521
-142476.246434
-142475.414367
-142475.873137
-142475.954359
-142478.125213
-142476.145764
-142475.685113
-142475.265988
-142474.829298
-142476.318114
-142474.286723
-142475.199201
-142476.571101
-142476.149436
-142477.808717
-142474.577793
-142476.669993
-142477.284245
-142475.962796
-142474.950435
-142477.677281
-142475.549154
-142476.752123
-142475.503478
-142475.688255
-142475.549375
-142475.637152
-142478.077746
-142475.478696
-142476.249751
-142475.953680
-142476.111294
-142475.646445
-142477.569139
-142477.971953
-142475.487234
-142475.100291
-142477.675344
