5.161383	0.000000	0.000000	0.000000	9.051971	0.000000	-2.004082	0.000000	20.111875	
5.151487	0.000000	0.000000	0.000000	8.970053	0.000000	-1.965298	0.000000	20.111865	
5.225942	0.000000	0.000000	0.000000	9.069236	0.000000	-1.969736	0.000000	20.203028	
5.197526	0.000000	0.000000	0.000000	8.991631	0.000000	-1.991614	0.000000	19.904959	
5.145243	0.000000	0.000000	0.000000	9.006866	0.000000	-1.995335	0.000000	19.980630	
5.166304	0.000000	0.000000	0.000000	8.990361	0.000000	-2.003741	0.000000	20.134808	
5.214353	0.000000	0.000000	0.000000	8.947116	0.000000	-1.998114	0.000000	20.000894	
5.202659	0.000000	0.000000	0.000000	9.044021	0.000000	-1.985178	0.000000	20.131063	
5.187895	0.000000	0.000000	0.000000	8.957580	0.000000	-1.989724	0.000000	19.871120	
5.168474	0.000000	0.000000	0.000000	8.892757	0.000000	-1.971943	0.000000	20.145072	
5.161012	0.000000	0.000000	0.000000	9.001327	0.000000	-1.991310	0.000000	19.914959	
5.133231	0.000000	0.000000	0.000000	8.981136	0.000000	-1.999614	0.000000	19.967240	
5.209220	0.000000	0.000000	0.000000	9.029960	0.000000	-1.974737	0.000000	19.951153	
5.172390	0.000000	0.000000	0.000000	8.947174	0.000000	-1.987175	0.000000	19.920859	
5.195144	0.000000	0.000000	0.000000	8.944885	0.000000	-1.965536	0.000000	19.901798	
5.163605	0.000000	0.000000	0.000000	8.901596	0.000000	-1.989677	0.000000	20.144484	
5.152598	0.000000	0.000000	0.000000	8.997627	0.000000	-1.973219	0.000000	20.243179	
5.140322	0.000000	0.000000	0.000000	8.893466	0.000000	-1.968059	0.000000	20.208938	
5.141856	0.000000	0.000000	0.000000	9.054870	0.000000	-1.998305	0.000000	20.219686	
5.130056	0.000000	0.000000	0.000000	8.994896	0.000000	-2.000003	0.000000	19.972004	
5.175247	0.000000	0.000000	0.000000	8.934883	0.000000	-1.967174	0.000000	20.027229	
5.155509	0.000000	0.000000	0.000000	8.962986	0.000000	-1.975885	0.000000	19.954583	
5.133284	0.000000	0.000000	0.000000	9.030400	0.000000	-2.003223	0.000000	19.910000	
5.192657	0.000000	0.000000	0.000000	8.915424	0.000000	-1.993259	0.000000	19.897047	
5.134924	0.000000	0.000000	0.000000	9.066689	0.000000	-1.992263	0.000000	20.040694	
5.211602	0.000000	0.000000	0.000000	8.987835	0.000000	-1.979377	0.000000	20.063505	
5.186201	0.000000	0.000000	0.000000	8.984549	0.000000	-1.978334	0.000000	19.882537	
5.221921	0.000000	0.000000	0.000000	9.064622	0.000000	-2.000528	0.000000	20.147188	
5.229700	0.000000	0.000000	0.000000	8.948340	0.000000	-1.976235	0.000000	20.127890	
5.132543	0.000000	0.000000	0.000000	8.901867	0.000000	-1.973611	0.000000	19.969984	
5.150006	0.000000	0.000000	0.000000	9.059230	0.000000	-1.978411	0.000000	20.040443	
5.201494	0.000000	0.000000	0.000000	8.979782	0.000000	-1.966659	0.000000	20.071142	
5.224937	0.000000	0.000000	0.000000	9.035682	0.000000	-1.970846	0.000000	20.175535	
5.186942	0.000000	0.000000	0.000000	8.940162	0.000000	-1.968190	0.000000	20.014641	
5.186783	0.000000	0.000000	0.000000	9.015044	0.000000	-1.979069	0.000000	19.928654	
5.159742	0.000000	0.000000	0.000000	8.932391	0.000000	-1.996929	0.000000	19.875529	
5.181650	0.000000	0.000000	0.000000	9.025740	0.000000	-1.999905	0.000000	20.136251	
5.197896	0.000000	0.000000	0.000000	8.962041	0.000000	-1.973776	0.000000	20.058915	
5.150588	0.000000	0.000000	0.000000	9.061918	0.000000	-1.995271	0.000000	20.260496	
5.188424	0.000000	0.000000	0.000000	9.025367	0.000000	-1.995940	0.000000	19.941349	
5.157731	0.000000	0.000000	0.000000	8.935378	0.000000	-1.999085	0.000000	19.961035	
5.226472	0.000000	0.000000	0.000000	8.915927	0.000000	-1.982359	0.000000	20.158005	
5.202764	0.000000	0.000000	0.000000	8.997224	0.000000	-1.994865	0.000000	20.105064	
5.147095	0.000000	0.000000	0.000000	8.962879	0.000000	-2.003985	0.000000	20.244400	
5.177576	0.000000	0.000000	0.000000	9.046017	0.000000	-2.001884	0.000000	20.039087	
5.183238	0.000000	0.000000	0.000000	8.966343	0.000000	-2.001523	0.000000	19.917312	
5.169532	0.000000	0.000000	0.000000	9.018228	0.000000	-1.973086	0.000000	20.223882	
5.190329	0.000000	0.000000	0.000000	9.010188	0.000000	-1.996294	0.000000	19.885712	
5.158790	0.000000	0.000000	0.000000	8.977651	0.000000	-1.978004	0.000000	19.920239	
5.151064	0.000000	0.000000	0.000000	8.964314	0.000000	-1.992205	0.000000	20.017194	
5.158631	0.000000	0.000000	0.000000	9.000315	0.000000	-1.993378	0.000000	19.993105	
5.169479	0.000000	0.000000	0.000000	9.054146	0.000000	-1.992307	0.000000	19.990144	
5.174612	0.000000	0.000000	0.000000	8.955645	0.000000	-1.971217	0.000000	19.882770	
5.162600	0.000000	0.000000	0.000000	9.061948	0.000000	-1.996543	0.000000	19.964843	
5.218481	0.000000	0.000000	0.000000	8.933074	0.000000	-1.966553	0.000000	20.076603	
5.135294	0.000000	0.000000	0.000000	8.998843	0.000000	-2.001373	0.000000	19.957218	
5.194192	0.000000	0.000000	0.000000	9.050479	0.000000	-2.000616	0.000000	20.251255	
5.171226	0.000000	0.000000	0.000000	8.907451	0.000000	-1.997624	0.000000	19.867455	
5.190329	0.000000	0.000000	0.000000	9.005423	0.000000	-1.979233	0.000000	19.925761	
5.184137	0.000000	0.000000	0.000000	8.923124	0.000000	-1.986567	0.000000	20.136387	
5.160219	0.000000	0.000000	0.000000	9.027524	0.000000	-1.984341	0.000000	20.121648	
5.145031	0.000000	0.000000	0.000000	9.010977	0.000000	-1.978203	0.000000	20.042778	
5.182603	0.000000	0.000000	0.000000	9.035650	0.000000	-1.975505	0.000000	19.946149	
5.136459	0.000000	0.000000	0.000000	9.017921	0.000000	-1.998699	0.000000	19.928083	
5.149953	0.000000	0.000000	0.000000	9.047303	0.000000	-2.001982	0.000000	19.895050	
5.206522	0.000000	0.000000	0.000000	8.962756	0.000000	-1.983362	0.000000	20.190703	
5.130955	0.000000	0.000000	0.000000	9.019973	0.000000	-1.971703	0.000000	20.041567	
5.140798	0.000000	0.000000	0.000000	9.050637	0.000000	-1.991571	0.000000	20.020416	
5.196097	0.000000	0.000000	0.000000	9.009206	0.000000	-1.968146	0.000000	20.247823	
5.207950	0.000000	0.000000	0.000000	8.951352	0.000000	-1.996270	0.000000	19.979760	
5.145878	0.000000	0.000000	0.000000	8.996152	0.000000	-1.985233	0.000000	19.900788	
5.189800	0.000000	0.000000	0.000000	8.915064	0.000000	-1.973478	0.000000	19.919458	
5.224143	0.000000	0.000000	0.000000	9.047422	0.000000	-1.987891	0.000000	20.253517	
5.213189	0.000000	0.000000	0.000000	8.903658	0.000000	-1.989390	0.000000	20.256936	
5.197261	0.000000	0.000000	0.000000	9.020236	0.000000	-1.970110	0.000000	20.151252	
5.205040	0.000000	0.000000	0.000000	8.928902	0.000000	-2.001968	0.000000	20.200479	
5.214936	0.000000	0.000000	0.000000	9.013250	0.000000	-1.971892	0.000000	20.075823	
5.163711	0.000000	0.000000	0.000000	8.944921	0.000000	-1.990652	0.000000	19.933020	
5.140957	0.000000	0.000000	0.000000	8.910635	0.000000	-1.990460	0.000000	19.902756	
5.197102	0.000000	0.000000	0.000000	8.942685	0.000000	-1.986229	0.000000	20.017642	
5.207950	0.000000	0.000000	0.000000	9.061875	0.000000	-1.977235	0.000000	20.207566	
5.198584	0.000000	0.000000	0.000000	8.976712	0.000000	-1.968984	0.000000	20.020012	
5.225678	0.000000	0.000000	0.000000	8.908035	0.000000	-1.983082	0.000000	19.953749	
5.167204	0.000000	0.000000	0.000000	9.000039	0.000000	-1.971247	0.000000	19.981117	
5.216047	0.000000	0.000000	0.000000	8.989914	0.000000	-2.001199	0.000000	19.982023	
5.200330	0.000000	0.000000	0.000000	9.027586	0.000000	-1.987551	0.000000	19.964890	
5.178846	0.000000	0.000000	0.000000	8.942277	0.000000	-1.984632	0.000000	20.113326	
5.172231	0.000000	0.000000	0.000000	8.999253	0.000000	-1.985578	0.000000	20.044629	
5.195356	0.000000	0.000000	0.000000	9.029866	0.000000	-1.990679	0.000000	20.215369	
5.198901	0.000000	0.000000	0.000000	8.993533	0.000000	-1.987181	0.000000	20.133271	
5.161277	0.000000	0.000000	0.000000	8.992632	0.000000	-1.995009	0.000000	20.095551	
5.198108	0.000000	0.000000	0.000000	8.990699	0.000000	-1.974943	0.000000	20.159301	
5.152704	0.000000	0.000000	0.000000	8.905094	0.000000	-1.989557	0.000000	19.886306	
5.177470	0.000000	0.000000	0.000000	9.010402	0.000000	-1.969375	0.000000	20.206608	
5.137358	0.000000	0.000000	0.000000	9.056736	0.000000	-1.998402	0.000000	19.881859	
5.183132	0.000000	0.000000	0.000000	9.013368	0.000000	-1.989074	0.000000	20.157491	
5.176994	0.000000	0.000000	0.000000	8.909880	0.000000	-1.997351	0.000000	20.053188	
5.227953	0.000000	0.000000	0.000000	8.976255	0.000000	-1.980657	0.000000	20.047507	
5.193451	0.000000	0.000000	0.000000	8.935561	0.000000	-2.002397	0.000000	20.016272	
5.195726	0.000000	0.000000	0.000000	8.914157	0.000000	-1.988846	0.000000	20.208742	
5.200277	0.000000	0.000000	0.000000	9.011774	0.000000	-1.966121	0.000000	20.155027	
5.207845	0.000000	0.000000	0.000000	8.946410	0.000000	-1.965159	0.000000	20.014226	
5.225572	0.000000	0.000000	0.000000	9.038139	0.000000	-1.972847	0.000000	19.903133	
5.169532	0.000000	0.000000	0.000000	8.958484	0.000000	-1.985266	0.000000	20.003686	
5.146830	0.000000	0.000000	0.000000	9.055663	0.000000	-1.994109	0.000000	20.011355	
5.176359	0.000000	0.000000	0.000000	8.949619	0.000000	-1.988296	0.000000	19.883201	
5.197049	0.000000	0.000000	0.000000	8.994882	0.000000	-1.987482	0.000000	19.925305	
5.142015	0.000000	0.000000	0.000000	8.931572	0.000000	-1.987425	0.000000	20.148775	
5.206363	0.000000	0.000000	0.000000	8.914777	0.000000	-1.970744	0.000000	20.043482	
5.131273	0.000000	0.000000	0.000000	8.918629	0.000000	-1.985382	0.000000	20.138172	
5.226895	0.000000	0.000000	0.000000	8.898240	0.000000	-1.981511	0.000000	20.214264	
5.222556	0.000000	0.000000	0.000000	8.947993	0.000000	-1.996614	0.000000	20.087594	
5.210067	0.000000	0.000000	0.000000	8.946337	0.000000	-1.972662	0.000000	19.928163	
5.140798	0.000000	0.000000	0.000000	8.964909	0.000000	-1.970823	0.000000	20.196606	
5.193398	0.000000	0.000000	0.000000	9.048146	0.000000	-1.984688	0.000000	20.259742	
5.207051	0.000000	0.000000	0.000000	8.942443	0.000000	-2.001996	0.000000	19.902900	
5.195779	0.000000	0.000000	0.000000	8.995281	0.000000	-1.989490	0.000000	19.865221	
5.189958	0.000000	0.000000	0.000000	9.009088	0.000000	-1.972397	0.000000	19.892996	
5.183820	0.000000	0.000000	0.000000	8.969776	0.000000	-1.985828	0.000000	20.255450	
5.162812	0.000000	0.000000	0.000000	9.045804	0.000000	-1.965715	0.000000	20.101330	
5.127727	0.000000	0.000000	0.000000	9.059381	0.000000	-2.001296	0.000000	20.201635	
5.159531	0.000000	0.000000	0.000000	8.913182	0.000000	-2.003110	0.000000	20.148091	
5.168474	0.000000	0.000000	0.000000	8.965250	0.000000	-1.970615	0.000000	20.057394	
5.214936	0.000000	0.000000	0.000000	8.944167	0.000000	-1.973994	0.000000	19.941804	
5.195038	0.000000	0.000000	0.000000	9.019101	0.000000	-1.988682	0.000000	19.973739	
5.181703	0.000000	0.000000	0.000000	8.900249	0.000000	-1.970628	0.000000	20.058404	
5.151328	0.000000	0.000000	0.000000	8.930168	0.000000	-1.985131	0.000000	20.212417	
5.225043	0.000000	0.000000	0.000000	8.898697	0.000000	-2.002581	0.000000	20.089908	
5.182762	0.000000	0.000000	0.000000	8.981850	0.000000	-2.002049	0.000000	20.032591	
5.167468	0.000000	0.000000	0.000000	8.990062	0.000000	-1.978887	0.000000	20.130534	
5.222767	0.000000	0.000000	0.000000	9.041483	0.000000	-1.998743	0.000000	20.112397	
5.214248	0.000000	0.000000	0.000000	9.051418	0.000000	-1.975595	0.000000	19.940378	
5.205569	0.000000	0.000000	0.000000	8.981340	0.000000	-2.000172	0.000000	20.154777	
5.220704	0.000000	0.000000	0.000000	9.046153	0.000000	-1.981367	0.000000	19.863107	
5.170591	0.000000	0.000000	0.000000	9.034609	0.000000	-2.004219	0.000000	20.016157	
5.222767	0.000000	0.000000	0.000000	8.940224	0.000000	-1.972091	0.000000	19.992404	
5.227742	0.000000	0.000000	0.000000	8.898029	0.000000	-1.974095	0.000000	19.936343	
5.191758	0.000000	0.000000	0.000000	8.978506	0.000000	-1.988298	0.000000	19.972328	
5.218799	0.000000	0.000000	0.000000	8.945647	0.000000	-1.990325	0.000000	20.132293	
5.190752	0.000000	0.000000	0.000000	9.045778	0.000000	-1.982634	0.000000	19.940409	
5.169162	0.000000	0.000000	0.000000	9.017670	0.000000	-1.996289	0.000000	20.249121	
5.180645	0.000000	0.000000	0.000000	8.991299	0.000000	-1.992999	0.000000	20.130877	
5.140269	0.000000	0.000000	0.000000	8.921640	0.000000	-1.993386	0.000000	20.227199	
5.221815	0.000000	0.000000	0.000000	9.028628	0.000000	-1.977402	0.000000	20.073831	
5.221497	0.000000	0.000000	0.000000	8.972819	0.000000	-1.977626	0.000000	20.117704	
5.196944	0.000000	0.000000	0.000000	8.925433	0.000000	-1.971024	0.000000	19.955676	
5.144343	0.000000	0.000000	0.000000	8.953817	0.000000	-1.977357	0.000000	19.922097	
5.195303	0.000000	0.000000	0.000000	9.060785	0.000000	-1.981972	0.000000	19.966184	
5.160007	0.000000	0.000000	0.000000	9.023428	0.000000	-1.976716	0.000000	19.964815	
5.154027	0.000000	0.000000	0.000000	8.978248	0.000000	-1.996526	0.000000	20.007645	
5.219804	0.000000	0.000000	0.000000	9.016162	0.000000	-1.989158	0.000000	20.015918	
5.130426	0.000000	0.000000	0.000000	8.910426	0.000000	-1.970709	0.000000	20.168915	
5.143761	0.000000	0.000000	0.000000	9.006325	0.000000	-1.969901	0.000000	20.213742	
5.154239	0.000000	0.000000	0.000000	8.971406	0.000000	-1.985088	0.000000	20.111768	
5.139951	0.000000	0.000000	0.000000	8.913184	0.000000	-2.000371	0.000000	19.979561	
5.224143	0.000000	0.000000	0.000000	8.957232	0.000000	-1.999661	0.000000	20.232193	
5.148471	0.000000	0.000000	0.000000	9.002451	0.000000	-1.972441	0.000000	20.093282	
5.145666	0.000000	0.000000	0.000000	9.008060	0.000000	-2.003388	0.000000	20.111446	
5.220121	0.000000	0.000000	0.000000	8.981209	0.000000	-1.979220	0.000000	19.942524	
5.137940	0.000000	0.000000	0.000000	9.033953	0.000000	-1.985408	0.000000	19.900455	
5.134977	0.000000	0.000000	0.000000	9.047824	0.000000	-2.004166	0.000000	20.126629	
5.187789	0.000000	0.000000	0.000000	9.044770	0.000000	-1.967614	0.000000	19.917285	
5.138364	0.000000	0.000000	0.000000	9.013589	0.000000	-1.976014	0.000000	19.973770	
5.207262	0.000000	0.000000	0.000000	8.975831	0.000000	-1.998230	0.000000	20.021742	
5.225307	0.000000	0.000000	0.000000	8.988386	0.000000	-1.976603	0.000000	19.940358	
5.211866	0.000000	0.000000	0.000000	8.896849	0.000000	-2.001998	0.000000	20.141690	
5.133495	0.000000	0.000000	0.000000	8.906429	0.000000	-1.988480	0.000000	20.035411	
5.168421	0.000000	0.000000	0.000000	8.928380	0.000000	-1.983919	0.000000	20.072472	
5.206045	0.000000	0.000000	0.000000	9.006839	0.000000	-1.966334	0.000000	19.957797	
5.200965	0.000000	0.000000	0.000000	8.923213	0.000000	-1.997103	0.000000	19.870673	
5.157467	0.000000	0.000000	0.000000	9.007903	0.000000	-2.004269	0.000000	19.993158	
5.133601	0.000000	0.000000	0.000000	8.948057	0.000000	-1.989799	0.000000	20.110903	
5.172337	0.000000	0.000000	0.000000	8.939577	0.000000	-2.002124	0.000000	20.036133	
5.217052	0.000000	0.000000	0.000000	8.952237	0.000000	-2.000672	0.000000	19.946132	
5.213877	0.000000	0.000000	0.000000	8.926153	0.000000	-1.989662	0.000000	20.001757	
5.141009	0.000000	0.000000	0.000000	8.921297	0.000000	-1.999668	0.000000	19.859889	
5.178422	0.000000	0.000000	0.000000	8.974175	0.000000	-1.967386	0.000000	20.110367	
5.203611	0.000000	0.000000	0.000000	8.998131	0.000000	-1.967621	0.000000	20.107357	
5.151223	0.000000	0.000000	0.000000	8.956014	0.000000	-1.992179	0.000000	20.098314	
5.157096	0.000000	0.000000	0.000000	8.897425	0.000000	-1.981743	0.000000	19.929610	
5.133442	0.000000	0.000000	0.000000	8.901148	0.000000	-2.002089	0.000000	20.110399	
5.193133	0.000000	0.000000	0.000000	8.997768	0.000000	-1.982229	0.000000	19.903437	
5.137305	0.000000	0.000000	0.000000	8.910337	0.000000	-1.965918	0.000000	20.180013	
5.190276	0.000000	0.000000	0.000000	8.960357	0.000000	-1.971988	0.000000	20.160376	
5.168103	0.000000	0.000000	0.000000	9.033390	0.000000	-1.983125	0.000000	19.970342	
5.229012	0.000000	0.000000	0.000000	9.031282	0.000000	-1.975677	0.000000	19.971232	
5.155985	0.000000	0.000000	0.000000	8.996498	0.000000	-1.966271	0.000000	20.256056	
5.163129	0.000000	0.000000	0.000000	8.927215	0.000000	-1.974918	0.000000	20.102628	
5.157573	0.000000	0.000000	0.000000	8.907690	0.000000	-1.971740	0.000000	20.248770	
5.170220	0.000000	0.000000	0.000000	8.953994	0.000000	-1.985556	0.000000	19.917415	
5.212184	0.000000	0.000000	0.000000	9.003297	0.000000	-1.966291	0.000000	20.079735	
5.138575	0.000000	0.000000	0.000000	8.981099	0.000000	-1.974595	0.000000	19.951038	
5.221444	0.000000	0.000000	0.000000	8.904296	0.000000	-1.965686	0.000000	20.014517	
5.164558	0.000000	0.000000	0.000000	8.968007	0.000000	-2.000383	0.000000	20.044052	
5.162441	0.000000	0.000000	0.000000	8.903223	0.000000	-2.003600	0.000000	20.125751	
5.216999	0.000000	0.000000	0.000000	9.016639	0.000000	-1.965917	0.000000	20.201213	
5.157943	0.000000	0.000000	0.000000	9.045145	0.000000	-1.973316	0.000000	20.095754	
5.128045	0.000000	0.000000	0.000000	8.977565	0.000000	-2.004537	0.000000	19.932679	
5.215147	0.000000	0.000000	0.000000	8.969167	0.000000	-2.003237	0.000000	20.062630	
5.209115	0.000000	0.000000	0.000000	8.998152	0.000000	-1.997909	0.000000	20.144105	
5.179428	0.000000	0.000000	0.000000	8.979740	0.000000	-1.984876	0.000000	20.060007	
5.179428	0.000000	0.000000	0.000000	8.979740	0.000000	-1.984876	0.000000	20.060007	
5.179428	0.000000	0.000000	0.000000	8.979740	0.000000	-1.984876	0.000000	20.060007	
5.179428	0.000000	0.000000	0.000000	8.979740	0.000000	-1.984876	0.000000	20.060007	
5.179428	0.000000	0.000000	0.000000	8.979740	0.000000	-1.984876	0.000000	20.060007	
5.179428	0.000000	0.000000	0.000000	8.979740	0.000000	-1.984876	0.000000	20.060007	
5.179428	0.000000	0.000000	0.000000	8.979740	0.000000	-1.984876	0.000000	20.060007	
5.179428	0.000000	0.000000	0.000000	8.979740	0.000000	-1.984876	0.000000	20.060007	
5.179428	0.000000	0.000000	0.000000	8.979740	0.000000	-1.984876	0.000000	20.060007	
5.179428	0.000000	0.000000	0.000000	8.979740	0.000000	-1.984876	0.000000	20.060007	
5.179428	0.000000	0.000000	0.000000	8.979740	0.000000	-1.984876	0.000000	20.060007	
5.179428	0.000000	0.000000	0.000000	8.979740	0.000000	-1.984876	0.000000	20.060007	
5.179428	0.000000	0.000000	0.000000	8.979740	0.000000	-1.984876	0.000000	20.060007	
5.179428	0.000000	0.000000	0.000000	8.979740	0.000000	-1.984876	0.000000	20.060007	
5.179428	0.000000	0.000000	0.000000	8.979740	0.000000	-1.984876	0.000000	20.060007	
5.179428	0.000000	0.000000	0.000000	8.979740	0.000000	-1.984876	0.000000	20.060007	
5.179428	0.000000	0.000000	0.000000	8.979740	0.000000	-1.984876	0.000000	20.060007	
5.179428	0.000000	0.000000	0.000000	8.979740	0.000000	-1.984876	0.000000	20.060007	
5.179428	0.000000	0.000000	0.000000	8.979740	0.000000	-1.984876	0.000000	20.060007	
5.179428	0.000000	0.000000	0.000000	8.979740	0.000000	-1.984876	0.000000	20.060007	
5.179428	0.000000	0.000000	0.000000	8.979740	0.000000	-1.984876	0.000000	20.060007	
5.179428	0.000000	0.000000	0.000000	8.979740	0.000000	-1.984876	0.000000	20.060007	
5.179428	0.000000	0.000000	0.000000	8.979740	0.000000	-1.984876	0.000000	20.060007	
5.179428	0.000000	0.000000	0.000000	8.979740	0.000000	-1.984876	0.000000	20.060007	
5.179428	0.000000	0.000000	0.000000	8.979740	0.000000	-1.984876	0.000000	20.060007	
5.179428	0.000000	0.000000	0.000000	8.979740	0.000000	-1.984876	0.000000	20.060007	
5.179428	0.000000	0.000000	0.000000	8.979740	0.000000	-1.984876	0.000000	20.060007	
5.179428	0.000000	0.000000	0.000000	8.979740	0.000000	-1.984876	0.000000	20.060007	
5.179428	0.000000	0.000000	0.000000	8.979740	0.000000	-1.984876	0.000000	20.060007	
5.179428	0.000000	0.000000	0.000000	8.979740	0.000000	-1.984876	0.000000	20.060007	
5.179428	0.000000	0.000000	0.000000	8.979740	0.000000	-1.984876	0.000000	20.060007	
5.179428	0.000000	0.000000	0.000000	8.979740	0.000000	-1.984876	0.000000	20.060007	
5.179428	0.000000	0.000000	0.000000	8.979740	0.000000	-1.984876	0.000000	20.060007	
5.179428	0.000000	0.000000	0.000000	8.979740	0.000000	-1.984876	0.000000	20.060007	
5.179428	0.000000	0.000000	0.000000	8.979740	0.000000	-1.984876	0.000000	20.060007	
5.179428	0.000000	0.000000	0.000000	8.979740	0.000000	-1.984876	0.000000	20.060007	
5.179428	0.000000	0.000000	0.000000	8.979740	0.000000	-1.984876	0.000000	20.060007	
5.179428	0.000000	0.000000	0.000000	8.979740	0.000000	-1.984876	0.000000	20.060007	
5.179428	0.000000	0.000000	0.000000	8.979740	0.000000	-1.984876	0.000000	20.060007	
5.179428	0.000000	0.000000	0.000000	8.979740	0.000000	-1.984876	0.000000	20.060007	
5.179428	0.000000	0.000000	0.000000	8.979740	0.000000	-1.984876	0.000000	20.060007	
5.179428	0.000000	0.000000	0.000000	8.979740	0.000000	-1.984876	0.000000	20.060007	
5.179428	0.000000	0.000000	0.000000	8.979740	0.000000	-1.984876	0.000000	20.060007	
5.179428	0.000000	0.000000	0.000000	8.979740	0.000000	-1.984876	0.000000	20.060007	
5.179428	0.000000	0.000000	0.000000	8.979740	0.000000	-1.984876	0.000000	20.060007	
5.179428	0.000000	0.000000	0.000000	8.979740	0.000000	-1.984876	0.000000	20.060007	
5.179428	0.000000	0.000000	0.000000	8.979740	0.000000	-1.984876	0.000000	20.060007	
5.179428	0.000000	0.000000	0.000000	8.979740	0.000000	-1.984876	0.000000	20.060007	
5.179428	0.000000	0.000000	0.000000	8.979740	0.000000	-1.984876	0.000000	20.060007	
5.179428	0.000000	0.000000	0.000000	8.979740	0.000000	-1.984876	0.000000	20.060007	
5.179428	0.000000	0.000000	0.000000	8.979740	0.000000	-1.984876	0.000000	20.060007	
5.179428	0.000000	0.000000	0.000000	8.979740	0.000000	-1.984876	0.000000	20.060007	
5.179428	0.000000	0.000000	0.000000	8.979740	0.000000	-1.984876	0.000000	20.060007	
5.179428	0.000000	0.000000	0.000000	8.979740	0.000000	-1.984876	0.000000	20.060007	
5.179428	0.000000	0.000000	0.000000	8.979740	0.000000	-1.984876	0.000000	20.060007	
5.179428	0.000000	0.000000	0.000000	8.979740	0.000000	-1.984876	0.000000	20.060007	
5.179428	0.000000	0.000000	0.000000	8.979740	0.000000	-1.984876	0.000000	20.060007	
5.179428	0.000000	0.000000	0.000000	8.979740	0.000000	-1.984876	0.000000	20.060007	
5.179428	0.000000	0.000000	0.000000	8.979740	0.000000	-1.984876	0.000000	20.060007	
5.179428	0.000000	0.000000	0.000000	8.979740	0.000000	-1.984876	0.000000	20.060007	
5.179428	0.000000	0.000000	0.000000	8.979740	0.000000	-1.984876	0.000000	20.060007	
5.179428	0.000000	0.000000	0.000000	8.979740	0.000000	-1.984876	0.000000	20.060007	
5.179428	0.000000	0.000000	0.000000	8.979740	0.000000	-1.984876	0.000000	20.060007	
5.179428	0.000000	0.000000	0.000000	8.979740	0.000000	-1.984876	0.000000	20.060007	
5.179428	0.000000	0.000000	0.000000	8.979740	0.000000	-1.984876	0.000000	20.060007	
5.179428	0.000000	0.000000	0.000000	8.979740	0.000000	-1.984876	0.000000	20.060007	
5.179428	0.000000	0.000000	0.000000	8.979740	0.000000	-1.984876	0.000000	20.060007	
5.179428	0.000000	0.000000	0.000000	8.979740	0.000000	-1.984876	0.000000	20.060007	
5.179428	0.000000	0.000000	0.000000	8.979740	0.000000	-1.984876	0.000000	20.060007	
5.179428	0.000000	0.000000	0.000000	8.979740	0.000000	-1.984876	0.000000	20.060007	
5.179428	0.000000	0.000000	0.000000	8.979740	0.000000	-1.984876	0.000000	20.060007	
5.179428	0.000000	0.000000	0.000000	8.979740	0.000000	-1.984876	0.000000	20.060007	
5.179428	0.000000	0.000000	0.000000	8.979740	0.000000	-1.984876	0.000000	20.060007	
5.179428	0.000000	0.000000	0.000000	8.979740	0.000000	-1.984876	0.000000	20.060007	
5.179428	0.000000	0.000000	0.000000	8.979740	0.000000	-1.984876	0.000000	20.060007	
5.179428	0.000000	0.000000	0.000000	8.979740	0.000000	-1.984876	0.000000	20.060007	
5.179428	0.000000	0.000000	0.000000	8.979740	0.000000	-1.984876	0.000000	20.060007	
5.179428	0.000000	0.000000	0.000000	8.979740	0.000000	-1.984876	0.000000	20.060007	
5.179428	0.000000	0.000000	0.000000	8.979740	0.000000	-1.984876	0.000000	20.060007	
5.179428	0.000000	0.000000	0.000000	8.979740	0.000000	-1.984876	0.000000	20.060007	
5.179428	0.000000	0.000000	0.000000	8.979740	0.000000	-1.984876	0.000000	20.060007	
5.179428	0.000000	0.000000	0.000000	8.979740	0.000000	-1.984876	0.000000	20.060007	
5.179428	0.000000	0.000000	0.000000	8.979740	0.000000	-1.984876	0.000000	20.060007	
5.179428	0.000000	0.000000	0.000000	8.979740	0.000000	-1.984876	0.000000	20.060007	
5.179428	0.000000	0.000000	0.000000	8.979740	0.000000	-1.984876	0.000000	20.060007	
5.179428	0.000000	0.000000	0.000000	8.979740	0.000000	-1.984876	0.000000	20.060007	
5.179428	0.000000	0.000000	0.000000	8.979740	0.000000	-1.984876	0.000000	20.060007	
5.179428	0.000000	0.000000	0.000000	8.979740	0.000000	-1.984876	0.000000	20.060007	
5.179428	0.000000	0.000000	0.000000	8.979740	0.000000	-1.984876	0.000000	20.060007	
5.179428	0.000000	0.000000	0.000000	8.979740	0.000000	-1.984876	0.000000	20.060007	
5.179428	0.000000	0.000000	0.000000	8.979740	0.000000	-1.984876	0.000000	20.060007	
5.179428	0.000000	0.000000	0.000000	8.979740	0.000000	-1.984876	0.000000	20.060007	
5.179428	0.000000	0.000000	0.000000	8.979740	0.000000	-1.984876	0.000000	20.060007	
5.179428	0.000000	0.000000	0.000000	8.979740	0.000000	-1.984876	0.000000	20.060007	
5.179428	0.000000	0.000000	0.000000	8.979740	0.000000	-1.984876	0.000000	20.060007	
5.179428	0.000000	0.000000	0.000000	8.979740	0.000000	-1.984876	0.000000	20.060007	
5.179428	0.000000	0.000000	0.000000	8.979740	0.000000	-1.984876	0.000000	20.060007	
5.179428	0.000000	0.000000	0.000000	8.979740	0.000000	-1.984876	0.000000	20.060007	
5.179428	0.000000	0.000000	0.000000	8.979740	0.000000	-1.984876	0.000000	20.060007	
5.179428	0.000000	0.000000	0.000000	8.979740	0.000000	-1.984876	0.000000	20.060007	
5.179428	0.000000	0.000000	0.000000	8.979740	0.000000	-1.984876	0.000000	20.060007	
5.179428	0.000000	0.000000	0.000000	8.979740	0.000000	-1.984876	0.000000	20.060007	
5.179428	0.000000	0.000000	0.000000	8.979740	0.000000	-1.984876	0.000000	20.060007	
5.179428	0.000000	0.000000	0.000000	8.979740	0.000000	-1.984876	0.000000	20.060007	
5.179428	0.000000	0.000000	0.000000	8.979740	0.000000	-1.984876	0.000000	20.060007	
5.179428	0.000000	0.000000	0.000000	8.979740	0.000000	-1.984876	0.000000	20.060007	
5.179428	0.000000	0.000000	0.000000	8.979740	0.000000	-1.984876	0.000000	20.060007	
5.179428	0.000000	0.000000	0.000000	8.979740	0.000000	-1.984876	0.000000	20.060007	
5.179428	0.000000	0.000000	0.000000	8.979740	0.000000	-1.984876	0.000000	20.060007	
5.179428	0.000000	0.000000	0.000000	8.979740	0.000000	-1.984876	0.000000	20.060007	
5.179428	0.000000	0.000000	0.000000	8.979740	0.000000	-1.984876	0.000000	20.060007	
5.179428	0.000000	0.000000	0.000000	8.979740	0.000000	-1.984876	0.000000	20.060007	
5.179428	0.000000	0.000000	0.000000	8.979740	0.000000	-1.984876	0.000000	20.060007	
5.179428	0.000000	0.000000	0.000000	8.979740	0.000000	-1.984876	0.000000	20.060007	
5.179428	0.000000	0.000000	0.000000	8.979740	0.000000	-1.984876	0.000000	20.060007	
5.179428	0.000000	0.000000	0.000000	8.979740	0.000000	-1.984876	0.000000	20.060007	
5.179428	0.000000	0.000000	0.000000	8.979740	0.000000	-1.984876	0.000000	20.060007	
5.179428	0.000000	0.000000	0.000000	8.979740	0.000000	-1.984876	0.000000	20.060007	
5.179428	0.000000	0.000000	0.000000	8.979740	0.000000	-1.984876	0.000000	20.060007	
5.179428	0.000000	0.000000	0.000000	8.979740	0.000000	-1.984876	0.000000	20.060007	
5.179428	0.000000	0.000000	0.000000	8.979740	0.000000	-1.984876	0.000000	20.060007	
5.179428	0.000000	0.000000	0.000000	8.979740	0.000000	-1.984876	0.000000	20.060007	
5.179428	0.000000	0.000000	0.000000	8.979740	0.000000	-1.984876	0.000000	20.060007	
5.179428	0.000000	0.000000	0.000000	8.979740	0.000000	-1.984876	0.000000	20.060007	
5.179428	0.000000	0.000000	0.000000	8.979740	0.000000	-1.984876	0.000000	20.060007	
5.179428	0.000000	0.000000	0.000000	8.979740	0.000000	-1.984876	0.000000	20.060007	
5.179428	0.000000	0.000000	0.000000	8.979740	0.000000	-1.984876	0.000000	20.060007	
5.179428	0.000000	0.000000	0.000000	8.979740	0.000000	-1.984876	0.000000	20.060007	
5.179428	0.000000	0.000000	0.000000	8.979740	0.000000	-1.984876	0.000000	20.060007	
5.179428	0.000000	0.000000	0.000000	8.979740	0.000000	-1.984876	0.000000	20.060007	
5.179428	0.000000	0.000000	0.000000	8.979740	0.000000	-1.984876	0.000000	20.060007	
5.179428	0.000000	0.000000	0.000000	8.979740	0.000000	-1.984876	0.000000	20.060007	
5.179428	0.000000	0.000000	0.000000	8.979740	0.000000	-1.984876	0.000000	20.060007	
5.179428	0.000000	0.000000	0.000000	8.979740	0.000000	-1.984876	0.000000	20.060007	
5.179428	0.000000	0.000000	0.000000	8.979740	0.000000	-1.984876	0.000000	20.060007	
5.179428	0.000000	0.000000	0.000000	8.979740	0.000000	-1.984876	0.000000	20.060007	
5.179428	0.000000	0.000000	0.000000	8.979740	0.000000	-1.984876	0.000000	20.060007	
5.179428	0.000000	0.000000	0.000000	8.979740	0.000000	-1.984876	0.000000	20.060007	
5.179428	0.000000	0.000000	0.000000	8.979740	0.000000	-1.984876	0.000000	20.060007	
5.179428	0.000000	0.000000	0.000000	8.979740	0.000000	-1.984876	0.000000	20.060007	
5.179428	0.000000	0.000000	0.000000	8.979740	0.000000	-1.984876	0.000000	20.060007	
5.179428	0.000000	0.000000	0.000000	8.979740	0.000000	-1.984876	0.000000	20.060007	
5.179428	0.000000	0.000000	0.000000	8.979740	0.000000	-1.984876	0.000000	20.060007	
5.179428	0.000000	0.000000	0.000000	8.979740	0.000000	-1.984876	0.000000	20.060007	
5.179428	0.000000	0.000000	0.000000	8.979740	0.000000	-1.984876	0.000000	20.060007	
5.179428	0.000000	0.000000	0.000000	8.979740	0.000000	-1.984876	0.000000	20.060007	
5.179428	0.000000	0.000000	0.000000	8.979740	0.000000	-1.984876	0.000000	20.060007	
5.179428	0.000000	0.000000	0.000000	8.979740	0.000000	-1.984876	0.000000	20.060007	
5.179428	0.000000	0.000000	0.000000	8.979740	0.000000	-1.984876	0.000000	20.060007	
5.179428	0.000000	0.000000	0.000000	8.979740	0.000000	-1.984876	0.000000	20.060007	
5.179428	0.000000	0.000000	0.000000	8.979740	0.000000	-1.984876	0.000000	20.060007	
5.179428	0.000000	0.000000	0.000000	8.979740	0.000000	-1.984876	0.000000	20.060007	
5.179428	0.000000	0.000000	0.000000	8.979740	0.000000	-1.984876	0.000000	20.060007	
5.179428	0.000000	0.000000	0.000000	8.979740	0.000000	-1.984876	0.000000	20.060007	
5.179428	0.000000	0.000000	0.000000	8.979740	0.000000	-1.984876	0.000000	20.060007	
5.179428	0.000000	0.000000	0.000000	8.979740	0.000000	-1.984876	0.000000	20.060007	
5.179428	0.000000	0.000000	0.000000	8.979740	0.000000	-1.984876	0.000000	20.060007	