3.641322	3.694576	15.009729	4.567904	5.353735	4.993817	1.170139	8.139295	15.027148	2.002327	0.972146	5.112258	-0.629797	8.241408	20.077150	-1.472619	6.734083	17.400064	2.925487	8.309286	10.164247	3.630488	6.643345	12.762962	1.770151	0.853836	20.070573	4.694772	2.374125	2.688207	0.388624	0.762344	10.100068	-0.490927	2.407854	7.387672	3.949194	3.756116	0.002085	0.225382	3.833951	10.112289	-0.761614	5.375116	20.097265	2.973994	5.213788	10.092319	-1.554216	0.657214	17.433183	3.684480	0.586990	12.767994	4.639609	8.349275	2.617727	-0.526322	8.382328	7.333107	0.880831	5.088603	17.344830	1.028284	2.289651	17.485702	1.215475	5.058229	12.813365	1.026272	2.268078	12.814421	2.146805	3.984308	2.803630	2.017695	6.901671	2.592120	2.009174	3.854029	7.248792	2.084493	6.956429	7.424634	-1.272741	3.041277	19.109401	3.358473	3.138862	11.170177	4.357078	5.969880	1.002446	-0.172045	6.017998	9.016828	1.272067	7.706765	18.672758	0.840947	7.755783	11.418631	1.828183	1.387008	1.296005	2.411627	1.356716	8.613657	-1.652924	0.623837	18.965802	-1.370231	6.749923	19.025595	-1.680144	3.985840	19.220182	-1.245569	8.343149	16.598623	-0.284287	1.809077	16.950209	2.291496	1.206505	16.802257	3.829199	0.608264	11.090839	3.370184	6.822589	11.173928	3.840382	3.813682	11.093689	3.340362	8.315681	13.489653	2.615162	1.720779	13.199328	-0.059765	1.275223	13.384011	4.761547	8.573410	1.144507	4.490643	2.307005	0.993358	4.821684	5.061948	1.065072	4.335453	0.872394	3.480893	3.501444	7.326388	3.138227	0.931527	7.813897	3.372309	-0.741697	8.573196	8.981890	-0.331004	2.207623	8.975101	-0.653238	5.214330	9.177634	-0.183993	0.711297	6.706485	0.670614	7.353282	6.933418	3.327366	7.801231	6.766296	0.834166	5.062336	19.063221	1.232564	2.326792	18.971003	0.913269	8.425875	19.234116	1.425747	3.655221	16.826425	2.047276	6.182611	17.060653	-0.462566	5.478863	16.657916	1.248265	4.889037	11.193868	0.813553	2.226802	11.211483	1.283330	8.501371	11.014589	0.813490	3.718603	13.376227	0.182008	6.183335	13.147520	2.617004	5.475443	13.563055	2.279697	4.113493	1.122212	2.001553	6.727086	1.003189	2.157696	0.590683	1.071416	1.869637	5.332780	3.400091	1.095778	2.740007	3.117125	3.671915	3.480720	3.384559	1.796528	4.002171	8.978494	2.314655	6.860374	8.990372	1.960180	0.473919	9.117685	2.314180	5.383357	6.648407	2.958956	2.754413	6.972767	0.470090	3.575862	6.621794	
-1.388527	3.613784	15.082559	4.619942	5.304494	4.973387	1.187334	7.994404	15.101849	2.089348	0.948332	5.070520	-0.650456	8.217858	20.035385	-1.542128	6.590475	17.337951	2.853898	8.195921	10.013526	3.664450	6.619350	12.740588	3.867160	0.859639	0.120299	4.717937	2.262702	2.806567	0.291946	0.794858	10.057913	-0.461136	2.365248	7.329254	3.851111	3.726862	0.018379	0.277691	3.727353	10.091799	-0.598442	5.117649	20.109561	2.983521	5.265767	10.068696	-1.499410	0.598319	17.425993	3.667546	0.642645	12.735750	4.642804	8.379643	2.620630	-0.464270	8.308896	7.292351	1.074476	5.147093	17.331868	1.185423	2.192084	17.350817	1.280328	5.052167	12.774781	1.116552	2.118625	12.793430	2.223072	3.806863	2.710654	2.051074	6.738668	2.759506	2.035266	3.874255	7.273206	2.127249	6.685103	7.289916	-1.120880	2.964097	19.042471	3.290863	3.041869	11.057681	4.395717	5.832383	0.988217	-0.236594	5.810301	8.883195	1.329243	7.572917	18.748793	0.860909	7.584774	11.446525	1.786065	1.359923	1.330510	2.379243	1.286427	8.673956	-1.698384	0.446591	19.020110	-1.187215	6.610251	19.023954	-1.542059	3.918298	19.137658	-1.114385	8.168956	16.652035	-0.387681	1.632365	16.901163	2.386198	1.255687	16.637772	3.801914	0.418092	11.165567	3.398482	6.705832	10.955346	3.942869	3.771576	10.951341	3.371767	8.114683	13.430822	2.482018	1.685960	13.188887	-0.073825	1.101666	13.346980	4.805452	8.310223	1.174147	4.371162	2.286811	0.971235	4.928355	5.150054	1.022934	4.475444	0.801515	3.334626	3.492874	7.298412	3.177525	0.975518	7.763647	3.422504	-0.761830	8.380884	8.960661	-0.324900	2.180560	8.997404	-0.540808	4.986131	9.156385	-0.224141	0.748556	6.587275	0.609104	7.148029	6.927981	3.285138	7.763368	6.723717	0.989277	4.974810	18.921428	1.242852	2.141483	18.965539	1.016506	8.389566	19.055037	1.460983	3.563864	16.618955	1.944613	6.223399	16.927306	-0.484699	5.399761	16.636068	1.403264	4.866875	11.059695	0.846283	2.126677	11.116036	1.289304	8.365585	11.064307	0.873104	3.604776	13.310074	0.110620	6.219698	13.111272	2.676787	5.329506	13.502187	2.263684	3.996207	1.156205	1.817806	6.586804	1.121796	2.305472	0.530003	0.961005	1.803204	5.332006	3.260244	1.112829	2.797015	3.181949	3.665378	3.530800	3.461351	1.918934	3.976666	9.029404	2.219134	6.759127	8.879822	1.960862	0.479897	9.084756	2.472078	5.331019	6.760772	2.930151	2.665282	6.843292	0.579516	3.409480	6.607821	
-1.461248	3.731434	15.149752	4.673665	5.353246	5.077698	1.235937	8.071664	15.054381	2.150583	0.989211	5.103095	-0.668481	8.282720	20.175111	-1.492416	6.639346	17.504836	2.930445	8.223749	10.099793	3.809072	6.790861	12.919234	2.050050	0.835607	20.134916	4.804299	2.322608	2.840754	0.378271	0.880252	10.042928	-0.595187	2.331209	7.419243	1.924006	3.785895	20.142531	0.327331	3.739091	9.977834	-0.643581	5.232855	20.052026	2.980970	5.255304	10.197581	-1.612114	0.593646	17.473482	3.776708	0.620622	12.744432	4.767186	8.528445	2.763373	-0.434260	8.550273	7.263566	1.066326	5.194911	17.324427	1.248919	2.165964	17.497240	1.305103	5.194368	12.887063	1.118131	2.279748	12.859075	2.263443	3.851545	2.808401	2.013920	6.933280	2.658093	2.022163	3.983292	7.311160	2.112808	6.886813	7.370160	-1.170504	3.003730	19.068964	3.330462	3.070099	11.173439	4.441748	5.890843	1.021451	-0.170139	6.059551	9.034903	1.320191	7.697213	18.901201	0.800654	7.809568	11.386750	1.839063	1.338940	1.288783	2.475756	1.423693	8.670872	-1.657048	0.597803	18.984906	-1.221745	6.751145	19.189393	-1.716541	3.934660	19.248513	-1.290349	8.222844	16.779031	-0.282521	1.818961	16.950836	2.318261	1.149616	16.717686	3.948409	0.469948	11.110707	3.458624	6.888255	11.000015	3.875547	3.876215	11.078079	3.527078	8.271541	13.598564	2.701926	1.689651	13.211284	-0.067565	1.275487	13.408693	4.912510	8.468035	1.156123	4.465583	2.357496	0.941736	4.866021	5.235014	0.944952	4.535972	0.773322	3.474149	3.668560	7.451511	3.056345	0.967387	7.843910	3.324448	-0.592848	8.582407	9.003478	-0.305828	2.184731	8.958181	-0.590185	5.235811	9.014645	-0.293524	0.758922	6.556937	0.630833	7.380383	6.882142	3.209597	7.777355	6.738463	0.852139	4.986251	19.094846	1.362638	2.214198	18.978575	0.942764	8.551705	19.195299	1.513595	3.730139	16.766161	2.165486	6.226582	17.046923	-0.381993	5.575521	16.703385	1.345023	4.926738	11.243131	1.036116	2.220969	11.187227	1.301675	8.546344	11.094864	0.924508	3.600496	13.378238	0.163431	6.192880	13.186245	2.613954	5.441639	13.573197	2.355184	3.999292	1.183193	1.957789	6.854068	1.130716	2.387118	0.447814	0.908281	1.844387	5.379766	3.378945	1.202133	2.795304	3.097463	3.730276	3.457162	3.339396	1.992253	4.014706	8.919678	2.224424	6.786535	8.922913	2.071323	0.533574	9.093668	2.352065	5.490992	6.636831	3.047758	2.777806	6.919320	0.578313	3.643242	6.748742	
-1.467490	3.501116	14.783574	-0.480568	5.378396	4.871739	1.167753	7.937005	14.790865	2.067815	1.014963	4.940275	-0.766533	8.098439	19.828126	-1.467909	6.486451	17.155637	2.921847	8.059675	9.999988	3.608770	6.481528	12.559711	1.920138	0.689554	19.872400	4.771470	2.244737	2.618938	0.380732	0.839171	9.932852	-0.604266	2.250010	7.209246	1.977884	3.679083	19.885397	0.324835	3.694013	9.899174	-0.702548	5.109533	19.660621	2.870414	5.301767	9.987144	-1.571508	0.541517	17.032801	3.743140	0.600931	12.624183	4.581740	8.314069	2.706841	-0.478955	8.388266	7.186046	0.822990	5.125918	16.992511	1.015164	2.100934	17.195468	1.219800	5.064371	12.499538	1.134219	2.076994	12.468357	2.133962	3.752837	2.679218	1.975706	6.692612	2.639848	1.874593	3.853284	7.179862	2.185374	6.728627	7.327072	-1.158932	3.125843	18.799976	3.420517	3.088123	10.897700	4.384927	5.799783	0.964085	-0.190664	5.855927	8.913972	1.416368	7.618360	18.528605	0.832306	7.544117	11.189113	1.858320	1.325241	1.292144	2.365034	1.307079	8.492543	-1.768662	0.547119	18.621265	-1.272626	6.717668	18.817728	-1.653933	3.881811	18.825051	-1.172769	8.157791	16.390003	-0.387964	1.652927	16.697741	2.175425	1.093757	16.426877	3.901712	0.591104	10.894001	3.509042	6.713213	10.954909	3.761642	3.756959	10.820499	3.292851	8.149899	13.257414	2.487763	1.746162	12.984483	-0.013456	1.225109	13.123480	4.864831	8.326684	1.153264	4.465570	2.178951	1.087979	4.794972	5.156420	1.023906	4.288642	0.808441	3.348774	3.489455	7.194728	2.994387	0.929449	7.718075	3.268092	-0.799041	8.375083	8.896403	-0.185978	2.223872	8.817389	-0.578771	4.966167	8.868077	-0.188572	0.734457	6.424817	0.648254	7.128984	6.767888	3.243352	7.751963	6.512290	0.948407	4.936103	18.774896	1.190864	2.273982	18.621712	0.865893	8.350141	18.862011	1.421309	3.517974	16.541447	2.028441	6.140565	16.684067	-0.499585	5.446982	16.462809	1.273407	4.954718	11.031299	0.878001	2.271863	10.846470	1.164831	8.381693	10.919703	0.793057	3.611385	13.119406	0.254215	6.226120	12.930323	2.717112	5.324720	13.182843	2.307941	4.096723	1.155975	1.808725	6.700830	1.031472	2.286816	0.591504	0.986725	1.843646	5.389117	3.308639	1.256652	2.765566	2.992495	3.542508	3.517287	3.279731	1.767626	4.009123	8.735214	2.264015	6.703994	8.921061	1.901696	0.538019	8.876006	2.258944	5.209188	6.512841	3.004095	2.645305	6.817381	0.593127	3.562271	6.482985	
3.579959	3.588029	15.010023	-0.442076	5.294106	5.058355	1.042624	8.101094	15.016223	2.165154	1.016587	5.094147	1.378266	8.312490	0.165662	-1.550637	6.584965	17.397261	2.899580	8.264054	10.183219	3.621494	6.637731	12.722949	3.895749	0.751025	0.127162	4.594391	2.265143	2.646853	0.266684	0.835502	10.004551	-0.458440	2.283362	7.248738	3.910565	3.755911	0.069776	0.256906	3.712260	10.100547	1.266871	5.259431	0.173700	2.846711	5.242781	10.045794	-1.550963	0.601544	17.489099	3.749194	0.539051	12.846904	4.643925	8.339001	2.693440	-0.540292	8.281158	7.287327	0.940591	5.147345	17.325591	1.091346	2.100559	17.464859	1.197597	5.162112	12.883455	1.076684	2.229877	12.846006	2.266394	3.938706	2.782946	2.101444	6.853762	2.625291	1.839928	3.929691	7.364597	2.161197	6.888030	7.414475	-1.215898	3.106513	19.065000	3.331850	3.015878	11.243025	4.301163	5.934621	1.136324	-0.255527	5.932184	8.930886	1.409587	7.594434	18.868929	0.812560	7.662309	11.328816	1.788881	1.409269	1.407335	2.363223	1.302429	8.770471	-1.619423	0.493156	19.013256	-1.237212	6.808055	19.118337	-1.739192	3.891630	19.225985	-1.218543	8.281827	16.643773	-0.346281	1.645018	16.989145	2.300776	1.259655	16.799468	3.788153	0.532842	11.063629	3.455340	6.735729	11.126483	3.767702	3.969168	11.087935	3.313894	8.130549	13.533369	2.540017	1.705485	13.204180	-0.064174	1.227672	13.425643	4.744577	8.502343	1.134655	4.501844	2.247379	1.087777	4.747534	5.060515	0.905402	4.282223	0.808859	3.402501	3.598124	7.285245	3.104564	0.903289	7.773831	3.394528	-0.685173	8.455380	8.983063	-0.262828	2.213135	9.042359	-0.607931	5.177786	9.176091	-0.184431	0.715297	6.589235	0.658132	7.254717	7.001886	3.160248	7.719904	6.778740	0.923537	5.043391	18.999151	1.245964	2.324016	18.967227	0.810828	8.488726	19.245279	1.393668	3.690090	16.841129	1.931536	6.300119	16.927777	-0.373107	5.395725	16.794313	1.351551	5.001528	11.060571	0.876864	2.228396	11.065488	1.299178	8.543481	10.943664	0.762244	3.543194	13.420734	0.111177	6.213176	13.207951	2.712002	5.496972	13.478473	2.352445	4.131385	1.162584	1.838701	6.825524	1.028229	2.165923	0.477715	0.966481	1.727460	5.397921	3.402386	1.175564	2.837882	3.172303	3.570911	3.477341	3.523662	1.812904	4.095013	9.071453	2.301968	6.695503	8.988272	1.818227	0.636561	9.154782	2.250454	5.351928	6.734627	3.067160	2.843880	6.901529	0.453120	3.620068	6.619784	
3.631154	3.631397	15.208232	-0.497977	5.312604	5.023005	1.180423	8.109623	15.247272	2.166286	0.996215	4.997193	-0.732992	8.238520	20.105458	-1.525315	6.533676	17.440665	2.855208	8.089135	10.160519	3.821937	6.620365	12.896908	1.829831	0.855338	20.103177	4.796847	2.293444	2.791301	0.360595	0.721177	10.099594	-0.549152	2.362749	7.363674	3.884498	3.732290	0.114888	0.235126	3.795563	10.116306	-0.742556	5.249944	20.105663	2.990663	5.264721	10.071289	-1.604114	0.560359	17.510435	3.761738	0.586829	12.931430	4.699093	8.313523	2.829096	-0.586160	8.260561	7.438334	1.054962	5.082766	17.401407	1.043802	2.217150	17.478942	1.329038	5.023906	12.783233	0.988937	2.080104	12.732994	2.202047	3.948207	2.807983	2.118221	6.724270	2.681803	1.994675	3.971273	7.450398	2.127466	6.692380	7.497611	-1.122103	3.042938	19.117386	3.287561	3.124589	11.186411	4.408776	5.931147	0.999144	-0.210302	5.889628	8.946562	1.407139	7.697856	18.801142	0.914452	7.754728	11.532935	1.835178	1.263904	1.438226	2.368156	1.394094	8.802851	-1.674472	0.426531	19.144017	-1.278195	6.799587	19.265312	-1.557950	3.794787	19.273268	-1.282732	8.227017	16.827731	-0.329682	1.666828	16.993401	2.289585	1.252358	16.756842	4.000388	0.495235	11.207645	3.422205	6.710255	11.034778	3.863832	3.918346	11.138731	3.510794	8.254961	13.551237	2.635591	1.613429	13.200207	-0.152801	1.248847	13.472047	4.864768	8.480927	1.138103	4.444246	2.305533	1.096442	4.862565	5.058338	1.059222	4.456851	0.680248	3.500698	3.530629	7.181210	3.229193	1.005240	7.831407	3.413054	-0.678258	8.488427	8.980535	-0.306318	2.298884	9.052820	-0.640046	5.100401	9.040314	-0.171317	0.877865	6.713333	0.715435	7.331276	6.894033	3.340341	7.849343	6.776173	0.895312	5.027231	19.040219	1.343031	2.172441	19.128351	0.945783	8.480315	19.162778	1.377080	3.624347	16.803911	2.032301	6.231878	17.030921	-0.439594	5.410938	16.768171	1.236656	4.856201	11.171499	0.832918	2.158939	11.245370	1.265055	8.402499	11.019712	0.760367	3.594732	13.438107	0.259000	6.268569	13.348518	2.712970	5.460545	13.556895	2.326601	4.130855	1.026872	1.928045	6.728633	1.106336	2.166293	0.525029	0.941526	1.730793	5.305124	3.319096	1.180099	2.807031	3.221493	3.628336	3.488479	3.355195	1.816548	3.957950	8.970841	2.354463	6.677560	9.021856	1.850669	0.473928	9.087362	2.307721	5.335646	6.797669	3.050672	2.841161	6.917573	0.535325	3.530663	6.661660	
-1.391889	3.617361	14.899666	4.709078	5.361575	4.991616	1.072720	8.025099	15.032097	2.124305	0.966113	4.905986	-0.649222	8.245353	19.990394	-1.577214	6.554975	17.253225	2.948003	8.121092	10.046750	3.792448	6.618162	12.599545	3.932720	0.769780	0.023943	4.687943	2.315674	2.744352	0.411770	0.865216	9.987344	-0.487267	2.273382	7.336199	1.838179	3.778734	19.935243	0.226720	3.774191	9.879666	-0.630104	5.180671	19.925338	3.034567	5.156574	10.070410	-1.562455	0.703581	17.143344	3.676757	0.588390	12.726935	4.698127	8.319917	2.673262	-0.588827	8.395265	7.344613	1.012089	5.032565	17.192645	1.229010	2.245228	17.198266	1.322573	5.128611	12.624183	1.094343	2.132306	12.528709	2.305053	3.829741	2.632873	2.105915	6.782842	2.592743	1.885967	3.873779	7.178132	2.197566	6.830174	7.384074	-1.214301	3.016436	18.900748	3.429811	3.082317	10.949179	4.469501	5.812519	0.999639	-0.235908	5.880754	8.982699	1.472642	7.620241	18.501703	0.746002	7.640184	11.198194	1.797777	1.400927	1.243903	2.471149	1.376273	8.723764	-1.754112	0.505567	18.889866	-1.152743	6.687989	18.946800	-1.549049	3.842340	19.004977	-1.189495	8.084472	16.553453	-0.407718	1.608476	16.798810	2.357628	1.147409	16.668420	3.917398	0.538041	11.122984	3.519273	6.622846	11.060853	3.973458	3.862271	10.888659	3.544264	8.202993	13.289860	2.676445	1.710196	13.035193	-0.075693	1.238381	13.237500	4.869048	8.466184	1.081776	4.557064	2.188257	1.078766	4.968837	5.169509	0.884119	4.483483	0.710313	3.331420	3.684505	7.137866	3.137879	0.890700	7.675200	3.397194	-0.617037	8.496006	8.915888	-0.316015	2.293283	8.855122	-0.700294	5.098572	8.976373	-0.142241	0.796221	6.630403	0.644404	7.283745	6.824225	3.201044	7.680928	6.602256	0.955696	4.895482	18.891798	1.324593	2.270627	18.866229	0.967572	8.457085	18.870169	1.397224	3.535152	16.650117	2.055123	6.283014	16.855293	-0.356061	5.525059	16.520886	1.249948	4.820526	10.989954	1.002087	2.257698	11.011124	1.211412	8.449362	10.934434	0.922387	3.547915	13.217999	0.187535	6.233925	13.048966	2.711769	5.404969	13.392517	2.391712	4.077544	1.173188	1.880840	6.642092	1.037323	2.319323	0.568912	0.997439	1.836731	5.233548	3.295604	1.114425	2.725824	3.028477	3.602753	3.445077	3.463546	1.943004	3.949680	8.857441	2.295272	6.686454	8.968837	1.897608	0.617090	9.076776	2.346241	5.331659	6.571769	3.044033	2.729619	6.887965	0.551459	3.486895	6.483139	
-1.454426	3.576970	15.082230	-0.465568	5.502377	4.975482	1.149813	8.164513	15.079165	2.128267	0.880783	5.093757	1.254469	8.196028	0.012249	-1.459852	6.621395	17.428472	2.870532	8.341355	10.144219	3.684765	6.786551	12.852093	3.891129	0.706163	0.081304	4.702789	2.337640	2.763772	0.356996	0.737296	10.122041	-0.495548	2.318396	7.349061	1.952444	3.704828	20.108916	0.326751	3.832888	9.976928	-0.665965	5.330165	20.111860	2.977730	5.215615	10.183517	-1.516031	0.708387	17.534762	3.657492	0.613657	12.784517	4.716031	8.381101	2.787338	-0.467460	8.537797	7.322761	0.912135	5.216915	17.435575	1.043151	2.132542	17.470667	1.280909	5.116019	12.927718	1.105975	2.160249	12.795867	2.209092	4.015668	2.766543	1.997417	6.874987	2.778107	1.848731	3.828680	7.376245	2.113060	6.864375	7.437592	-1.183741	3.164379	19.175989	3.397964	2.998806	11.090919	4.408823	5.939032	1.098131	-0.080847	5.983856	9.084506	1.462737	7.846266	18.753822	0.924115	7.738981	11.426102	1.896574	1.252837	1.341636	2.269946	1.382982	8.653539	-1.751422	0.569551	19.104363	-1.341963	6.828843	19.215340	-1.695925	3.845903	19.259227	-1.135548	8.366627	16.746718	-0.388790	1.684259	17.137944	2.233962	1.112725	16.851297	3.826988	0.454405	11.149301	3.511483	6.845487	11.129522	3.839272	3.949710	11.020993	3.476734	8.325882	13.605871	2.472934	1.801494	13.193215	-0.058972	1.157550	13.560472	4.956500	8.565572	1.070935	4.485879	2.229935	1.124438	4.826263	5.208711	1.071877	4.316024	0.759444	3.544102	3.568532	7.259483	3.226127	0.853096	7.849804	3.433863	-0.745667	8.558504	8.909849	-0.356151	2.218822	9.045220	-0.554632	5.104284	9.166005	-0.244099	0.809498	6.672118	0.616504	7.365169	6.920822	3.331232	7.952685	6.711101	0.898980	4.965038	19.181547	1.206280	2.357326	19.065582	0.985791	8.558452	19.177606	1.368558	3.576231	16.887610	2.038301	6.222220	17.045244	-0.460259	5.451490	16.729359	1.407217	4.968371	11.125863	0.970170	2.328972	11.121355	1.254016	8.488265	11.118023	0.863304	3.682481	13.518109	0.177593	6.316287	13.317413	2.706447	5.434913	13.450365	2.237888	4.097918	1.186930	1.963062	6.825121	1.001227	2.321145	0.510033	0.907157	1.832193	5.332988	3.430361	1.135275	2.883662	3.172779	3.586017	3.528222	3.510382	1.803138	4.169232	9.041950	2.367459	6.770418	9.087394	1.891119	0.466799	9.040947	2.442503	5.407915	6.761893	3.091720	2.728134	6.955944	0.598406	3.536260	6.682202	
-1.449912	3.501057	14.870356	-0.458181	5.376643	4.901574	1.181774	7.914411	14.920956	2.175966	1.033821	4.967757	-0.725271	8.153538	19.867444	-1.497288	6.515388	17.044507	2.898765	8.177203	9.936550	3.682096	6.562234	12.562739	3.909754	0.843389	0.052052	4.803047	2.352309	2.733237	0.369305	0.701082	9.875737	-0.562690	2.306939	7.254655	1.867266	3.787231	19.840355	0.262873	3.709045	9.890632	-0.750125	5.154753	19.754474	2.847256	5.250763	9.976606	-1.546099	0.708749	17.222322	3.791809	0.576425	12.619943	4.650363	8.238694	2.771425	-0.557491	8.232047	7.197637	0.931674	5.031630	17.167226	1.130958	2.165720	17.144628	1.156725	5.074636	12.519345	1.076514	2.143529	12.455668	2.183780	3.806640	2.693384	2.108663	6.815063	2.586000	1.993432	3.884389	7.120614	2.029506	6.690268	7.290008	-1.101517	3.019962	18.731662	3.360183	3.084985	11.014631	4.292882	5.924714	1.061727	-0.201021	5.772345	8.767560	1.342444	7.541446	18.380198	0.844367	7.542608	11.212414	1.872659	1.233729	1.276819	2.387730	1.334238	8.674800	-1.748933	0.531395	18.738269	-1.227760	6.602820	18.766754	-1.578070	3.896329	18.885516	-1.185755	8.196523	16.431870	-0.400659	1.705698	16.677606	2.326128	1.118281	16.427738	3.919017	0.475457	11.028049	3.465831	6.717405	10.884495	3.767153	3.776721	10.842677	3.387393	8.065449	13.265746	2.533410	1.776501	12.927272	-0.070871	1.228849	13.177654	4.813721	8.377903	1.086073	4.394108	2.235867	1.087850	4.814377	5.110363	1.052187	4.444777	0.770159	3.288988	3.562092	7.203095	3.156349	0.938154	7.747016	3.226688	-0.602101	8.285154	8.820747	-0.245782	2.290530	8.979270	-0.759311	5.138610	9.029227	-0.139333	0.678438	6.471055	0.688356	7.265547	6.818818	3.323522	7.702095	6.512172	0.874533	4.815058	18.751348	1.242227	2.127445	18.677891	1.013510	8.293070	18.825446	1.395006	3.647947	16.409247	2.069259	6.159686	16.648558	-0.372921	5.409331	16.493127	1.291902	4.853099	10.875244	0.829005	2.166036	10.975404	1.252352	8.280047	10.939956	0.858404	3.506982	13.142139	0.254783	6.209784	12.901753	2.671233	5.501702	13.255453	2.325337	4.094100	1.099538	1.995840	6.688936	1.149352	2.210970	0.626633	0.972238	1.824460	5.377763	3.218102	1.080264	2.642446	3.038268	3.708601	3.480788	3.320062	1.807770	3.968928	8.861225	2.186665	6.739417	8.853923	1.830628	0.565269	8.941040	2.307708	5.369796	6.520840	3.056241	2.754003	6.717166	0.448247	3.432533	6.520610	
-1.450017	3.529321	15.221425	-0.433093	5.258369	5.142759	1.027755	7.877384	15.348376	2.183262	1.027177	5.165091	1.200223	8.168488	0.155071	-1.611616	6.666373	17.625027	2.868687	8.126761	10.164156	3.640367	6.643728	12.907763	1.844106	0.818020	20.117553	4.702346	2.348055	2.707847	0.322610	0.690558	10.179022	-0.596515	2.312462	7.465148	1.903587	3.631028	20.076164	0.368196	3.656314	10.153462	1.242450	5.223974	0.097995	2.867423	5.212846	10.119648	-1.510259	0.602087	17.566766	3.609831	0.622857	12.910151	4.727104	8.332542	2.649254	-0.444149	8.289907	7.427349	1.035808	5.096942	17.548427	1.103414	2.119596	17.640016	1.308633	5.101752	12.938838	1.073963	2.065385	12.849548	2.164886	3.812475	2.845447	1.974954	6.746329	2.806584	1.973571	3.760938	7.385462	2.050439	6.688206	7.446753	-1.076749	3.094657	19.244196	3.419064	3.084136	11.211845	4.347396	5.828110	1.062663	-0.081840	5.923618	9.135199	1.465953	7.679254	19.004013	0.920316	7.661748	11.544305	1.814391	1.217170	1.396753	2.279552	1.244750	8.870633	-1.622648	0.438749	19.258168	-1.149503	6.583647	19.260646	-1.558212	3.922476	19.434869	-1.223218	8.112799	16.772765	-0.418254	1.775806	17.103531	2.178910	1.156703	16.965642	3.791573	0.464380	11.288727	3.387349	6.695425	11.191060	3.793206	3.834909	11.067260	3.439051	8.113850	13.538788	2.516461	1.603931	13.293715	-0.027027	1.231677	13.484708	4.861734	8.476166	1.028815	4.513474	2.135309	0.936757	4.732286	4.985766	0.906560	4.401795	0.779968	3.394180	3.524935	7.222464	3.214469	1.013591	7.668546	3.327053	-0.689703	8.356889	9.163238	-0.234316	2.301264	9.090731	-0.656518	5.089863	9.172481	-0.283639	0.831763	6.758083	0.606161	7.161285	7.001286	3.265050	7.752507	6.731300	0.897338	4.875309	19.250246	1.342948	2.250030	19.209715	1.012797	8.461486	19.275573	1.439586	3.665487	17.030581	2.074802	6.263858	17.102006	-0.501326	5.410385	16.815676	1.363747	4.992918	11.283778	0.836465	2.146852	11.299102	1.361367	8.331798	11.210581	0.918303	3.536575	13.625965	0.149310	6.214741	13.444249	2.706275	5.325067	13.705505	2.289690	4.062707	1.157362	1.955075	6.621261	1.033966	2.245945	0.470893	0.884027	1.737478	5.219131	3.481326	1.121612	2.814051	3.167083	3.609611	3.579367	3.420548	1.962997	3.983416	9.142179	2.199521	6.780567	9.012513	1.884188	0.622024	9.181719	2.434137	5.309051	6.687469	3.016748	2.636464	7.074573	0.573283	3.577131	6.653266	
3.589580	3.588111	14.803939	4.638421	5.540365	4.962161	1.165416	8.027725	14.917877	2.146814	1.008494	4.968516	-0.712463	8.352239	19.842995	-1.541672	6.655170	17.088407	2.887405	8.393611	9.996500	3.804677	6.748297	12.541734	3.813167	0.797141	0.108315	4.672603	2.307383	2.664876	0.340024	0.688094	9.858897	-0.614142	2.345642	7.211128	3.886055	3.693378	0.100146	0.229392	3.848371	9.831120	-0.821449	5.244588	19.845502	2.842177	5.260728	9.984651	-1.577619	0.723430	17.119864	3.782320	0.545803	12.637562	4.628052	8.370801	2.752558	-0.560892	8.500306	7.158337	0.883843	5.220410	17.202499	1.031534	2.283286	17.189852	1.252040	5.181810	12.670842	1.079007	2.298153	12.549984	2.302615	3.936410	2.686337	2.065794	6.898045	2.678010	1.858701	3.921534	7.249720	2.036251	6.916441	7.333701	-1.173610	3.150877	18.852997	3.270781	3.007826	11.042705	4.368141	6.023046	0.995294	-0.098024	5.961796	8.753590	1.273238	7.796544	18.575382	0.841220	7.726545	11.162633	1.733167	1.352449	1.231139	2.384638	1.314586	8.687581	-1.778519	0.476484	18.666017	-1.360135	6.714095	18.855181	-1.647132	3.944441	18.818667	-1.152194	8.271564	16.544826	-0.453950	1.680824	16.822489	2.277093	1.142265	16.490426	3.894100	0.459111	10.969641	3.479324	6.744284	11.005459	3.770787	3.948917	10.802580	3.436265	8.385174	13.243354	2.610984	1.679455	12.946687	-0.037214	1.165127	13.223856	4.853844	8.541879	1.062808	4.397779	2.322373	0.943087	4.764302	5.160848	0.918005	4.452685	0.867631	3.339525	3.597678	7.345620	3.101392	0.975812	7.951938	3.298892	-0.676514	8.639771	8.789159	-0.339163	2.369665	8.990670	-0.624280	5.116080	8.917103	-0.271323	0.843652	6.536719	0.682500	7.357292	6.817763	3.333827	7.845945	6.650923	0.805201	4.952233	18.841470	1.250531	2.188516	18.829339	0.891586	8.462898	18.894431	1.446553	3.607805	16.474785	2.005800	6.211770	16.643653	-0.512339	5.576564	16.396295	1.242186	5.005456	11.023038	0.844740	2.307345	10.992384	1.246043	8.563394	10.856462	0.845983	3.663644	13.301226	0.102425	6.353821	12.950180	2.583397	5.472251	13.250066	2.348974	4.084448	0.990980	1.948774	6.751012	0.990564	2.215323	0.622163	0.971684	1.809468	5.411681	3.337805	1.257556	2.863103	3.024091	3.586258	3.513222	3.386928	1.891531	3.994096	8.745066	2.351802	6.744380	8.800645	1.927507	0.548329	9.025471	2.300993	5.488581	6.610399	3.024402	2.832257	6.832633	0.578202	3.630851	6.604541	
3.578062	3.688650	15.052524	4.538504	5.321382	4.946095	1.008757	8.067395	15.093401	2.143495	0.875850	5.017439	1.270305	8.197992	0.075941	-1.562149	6.648713	17.282039	2.941389	8.246048	10.067996	3.680216	6.555817	12.867340	1.819461	0.775395	19.913562	4.715645	2.310909	2.730878	0.385087	0.776130	10.060881	-0.639704	2.423760	7.307971	3.933166	3.765795	0.004102	0.320963	3.819571	10.127563	1.277885	5.249918	0.056458	2.956741	5.146195	10.145565	-1.479706	0.572536	17.362781	3.702980	0.627735	12.862984	4.670251	8.280829	2.729685	-0.514001	8.428903	7.319908	0.843292	5.066487	17.475292	1.085087	2.136193	17.522879	1.163124	5.086462	12.762952	1.106592	2.141709	12.664286	2.304450	3.842451	2.753286	2.082620	6.774444	2.647420	1.869365	3.864955	7.269222	2.053212	6.776416	7.299289	-1.230987	3.142338	19.027861	3.354833	3.062666	11.204720	4.296468	5.841257	1.052932	-0.118884	5.933357	8.955274	1.416682	7.619848	18.712643	0.719670	7.577563	11.472137	1.776562	1.389943	1.375241	2.364142	1.223489	8.637438	-1.709748	0.579900	19.050355	-1.214616	6.654275	19.121968	-1.687184	3.856206	19.197923	-1.122530	8.256264	16.647682	-0.306450	1.673952	17.025027	2.282331	1.231865	16.711097	3.932521	0.421043	11.055075	3.362932	6.759396	11.089231	3.754477	3.910018	11.107997	3.326042	8.089671	13.444063	2.551816	1.679441	13.145186	-0.029582	1.182140	13.459715	4.909953	8.411811	1.069279	4.501688	2.200531	1.023890	4.791901	5.096354	0.971355	4.417167	0.798030	3.380474	3.604724	7.246476	3.184616	0.901122	7.798678	3.393047	-0.628668	8.365298	8.938246	-0.203773	2.148504	9.033037	-0.602647	5.186115	8.997440	-0.150843	0.861966	6.536424	0.551141	7.179548	6.834735	3.160810	7.814349	6.663084	0.852363	4.889371	19.001727	1.329051	2.326557	19.084073	0.876256	8.336524	19.127494	1.449607	3.526300	16.777855	2.060492	6.309581	16.971217	-0.568872	5.350697	16.693776	1.386117	4.998068	11.205185	0.894456	2.137690	11.198893	1.258805	8.489060	11.039127	0.904547	3.532347	13.449780	0.161154	6.188830	13.197101	2.690239	5.400497	13.493391	2.207497	4.045296	1.061122	1.918280	6.629254	1.099116	2.299234	0.499811	0.915383	1.858677	5.281613	3.419344	1.110730	2.785780	3.160433	3.693711	3.429541	3.469851	1.853991	4.030972	8.940827	2.226597	6.737440	8.955659	1.980706	0.494765	9.032312	2.310485	5.397413	6.753715	3.017443	2.760869	6.903431	0.462354	3.601013	6.622029	