-48106.938629
-48108.368818
-48105.441390
-48099.467988
-48104.926092
-48107.900762
-48105.331438
-48107.245316
-48105.831744
-48105.581958
-48104.877473
-48106.841155
-48106.652387
-48108.450418
-48106.923401
-48106.839320
-48104.506271
-48104.910711
-48106.325719
-48103.412059
-48105.979956
-48107.694515
-48105.040370
-48102.990021
-48108.234800
-48109.232292
-48106.784369
-48107.514236
-48104.582024
-48106.556964
-48107.078106
-48106.076346
-48107.652718
-48107.902446
-48108.026211
-48105.352997
-48107.586759
-48108.389478
-48106.625774
-48107.419858
-48106.057860
-48106.621812
-48107.435732
-48110.900707
-48107.154691
-48106.519019
-48107.361281
-48105.940419
-48105.468983
-48108.431599
-48106.529494
-48107.352143
-48106.117884
-48104.943665
-48101.862931
-48107.679121
-48107.943334
-48106.511099
-48106.804183
-48104.185618
-48104.741281
-48105.125639
-48107.496482
-48106.845482
-48107.738217
-48105.872423
-48106.150106
-48107.048680
-48105.141796
-48107.080227
-48105.594256
-48107.857732
-48106.553636
-48106.985654
-48105.463832
-48105.795807
-48108.299323
-48107.019157
-48107.591513
-48106.821036
-48108.866678
-48106.667619
-48106.430195
-48105.806015
-48107.318494
-48105.769961
-48106.462612
-48106.869186
-48105.081610
-48107.573122
-48106.457478
-48107.017346
-48104.922132
-48104.803188
-48106.919732
-48105.493491
-48106.200217
-48107.198729
-48106.596840
-48106.004531
-48106.427437
-48107.184170
-48108.830898
-48104.351353
-48107.174141
-48105.480124
-48106.791948
-48107.800012
-48106.587008
-48106.506651
-48106.135860
-48104.705615
-48104.764631
-48106.328776
-48106.061054
-48105.903185
-48105.848446
-48104.532803
-48106.488657
-48105.690689
-48105.828670
-48106.473389
-48101.280012
-48106.160905
-48106.985108
-48105.019484
-48109.254751
-48106.389785
-48108.101909
-48107.574604
-48109.298407
-48108.889139
-48105.909826
-48107.907132
-48106.498853
-48106.670297
-48106.514291
-48106.927412
-48106.685466
-48107.355506
-48107.361574
-48107.315356
-48105.754595
-48105.890633
-48107.960985
-48107.538221
-48105.245962
-48106.055777
-48108.161737
-48106.402332
-48106.657154
-48107.594177
-48106.246922
-48108.469413
-48105.200883
-48107.432240
-48106.537201
-48108.114958
-48106.204200
-48108.186167
-48104.976843
-48107.665591
-48106.176802
-48107.866280
-48106.720987
-48105.366871
-48107.483708
-48106.109338
-48107.090170
-48105.131966
-48107.678509
-48109.511676
-48108.538943
-48107.881559
-48107.161713
-48107.547177
-48106.741150
-48107.240885
-48108.266573
-48107.044254
-48105.828163
-48107.484939
-48105.103759
-48107.792670
-48106.133577
-48105.557126
-48105.818555
-48107.184905
-48105.189263
-48105.912786
-48106.970750
-48108.810244
-48105.772573
-48104.123761
-48108.846919
-48105.821143
-48106.725461
-48107.811787
-48107.616459
-48107.298475
-48117.449599
-48117.474962
-48117.646132
-48117.633862
-48117.594114
-48117.433087
-48117.462346
-48117.457595
-48117.523268
-48117.570620
-48117.527199
-48117.528642
-48117.564245
-48117.519216
-48117.457837
-48117.529605
-48117.628517
-48117.522133
-48117.507486
-48117.552257
-48117.580222
-48117.616751
-48117.613253
-48117.594625
-48117.519928
-48117.271124
-48117.517575
-48117.455852
-48117.527591
-48117.571821
-48117.524455
-48117.548831
-48117.453012
-48117.499222
-48117.567237
-48117.430967
-48117.510863
-48117.487263
-48117.623261
-48117.464328
-48117.475904
-48117.418978
-48117.434442
-48117.501276
-48117.546560
-48117.528655
-48117.566363
-48117.597588
-48117.566416
-48117.455776
-48117.483108
-48117.427585
-48117.522142
-48117.552494
-48117.681933
-48117.608635
-48117.574605
-48117.434720
-48117.538954
-48117.515628
-48117.532261
-48117.534378
-48117.385379
-48117.460198
-48117.625940
-48117.667771
-48117.674851
-48117.510247
-48117.579420
-48117.527538
-48117.431895
-48117.581112
-48117.286576
-48117.420302
-48117.486675
-48117.430819
-48117.582050
-48117.626512
-48117.499477
-48117.530902
-48117.557134
-48117.602608
-48117.505144
-48117.580034
-48117.456709
-48117.433070
-48117.455410
-48117.409704
-48117.476076
-48117.487145
-48117.418225
-48117.517909
-48117.459384
-48117.532418
-48117.529031
-48117.491331
-48117.559650
-48117.491924
-48117.465842
-48117.553323
-48117.005600
-48116.677475
-48116.868923
-48116.640719
-48116.883216
-48116.942681
-48116.945850
-48117.103187
-48116.829779
-48116.898131
-48117.119711
-48116.920219
-48117.084045
-48117.041152
-48117.031344
-48116.924010
-48116.829151
-48116.951570
-48116.869737
-48116.941248
-48117.023418
-48117.099079
-48117.025389
-48116.900000
-48117.030731
-48116.935038
-48117.045744
-48116.576611
-48116.884002
-48116.863729
-48116.667830
-48116.631577
-48117.168120
-48117.037722
-48117.022781
-48117.026083
-48116.914494
-48116.689522
-48117.200784
-48116.929816
-48116.953311
-48116.630444
-48116.637043
-48117.049010
-48117.096010
-48116.996359
-48116.579922
-48117.203656
-48116.835111
-48117.129946
-48116.341048
-48116.553410
-48116.797072
-48116.766055
-48116.422841
-48116.124950
-48116.174740
-48116.497863
-48116.493081
-48116.378399
-48116.547432
-48116.561798
-48116.516112
-48116.185639
-48116.481149
-48116.399809
-48116.444169
-48116.477133
-48116.129392
-48116.457107
-48116.350665
-48116.624731
-48116.404876
-48116.678441
-48116.821862
-48116.425381
-48116.453979
-48116.326135
-48116.556694
-48116.514798
-48116.166193
-48116.595069
-48116.490357
-48116.387976
-48116.391426
-48116.456270
-48116.591450
-48116.615430
-48116.484755
-48116.603693
-48116.347041
-48116.550579
-48116.381393
-48116.673175
-48116.302459
-48116.234685
-48116.261793
-48116.368585
-48116.509877
-48116.517510
-48116.656803
-48116.574134
-48116.438962
-48116.412911
-48116.526521
-48116.571690
-48116.431191
-48116.544530
-48116.607810
-48116.302978
-48116.496568
-48116.257720
-48116.309018
-48116.379232
-48116.607746
-48116.537223
-48116.256609
-48116.524999
-48116.415062
-48116.428220
-48116.410751
-48116.477338
-48116.369047
-48116.488857
-48116.191617
-48116.410168
-48116.545411
-48116.479282
-48116.432757
-48116.391695
-48116.605919
-48116.357328
-48116.391675
-48116.326680
-48116.407534
-48116.675531
-48116.490691
-48116.401714
-48116.698438
-48116.512889
-48116.755953
-48116.558827
-48116.637875
-48116.420056
-48116.532668
-48116.251853
-48116.393144
-48116.390491
-48116.420328
-48116.533980
-48116.804853
-48116.569062
-48116.938066
-48116.046695
-48116.795020
-48116.801172
-48116.787799
-48116.801026
-48116.783556
-48116.493395
-48116.836678
-48116.898758
-48116.722503
-48116.327949
-48116.709178
-48116.794413
-48116.789792
-48116.358413
-48116.674093
-48116.762861
-48117.048423
-48116.991462
-48116.926648
-48116.802145
-48116.828861
-48116.751811
-48116.938327
-48116.840855
-48116.674250
-48116.805260
-48116.314036
-48116.917221
-48116.577053
-48116.806079
-48116.717891
-48116.245397
-48116.846184
-48116.938631
-48116.825131
-48116.782095
-48116.774901
-48116.751402
-48116.868712
-48116.236111
-48116.742555
-48116.716648
-48116.855302
-48116.246612
-48116.817514
-48116.791300
-48116.853061
-48117.024690
-48116.756433
-48116.170898
-48116.951202
-48116.745442
-48116.475892
-48116.918612
-48116.327347
-48116.694592
-48116.756683
-48116.620378
-48116.783226
-48116.773981
-48116.833701
-48116.738734
-48116.812362
-48116.871456
-48116.827448
-48116.675141
-48116.379461
-48116.956002
-48116.361092
-48116.787452
-48116.812268
-48116.840706
-48116.738726
-48116.889283
-48116.786340
-48116.877752
-48116.709650
-48116.936920
-48116.370629
-48116.786129
-48116.786313
-48116.814429
-48116.897166
-48116.441754
-48116.871117
-48116.768212
-48116.899556
-48116.727308
-48116.764312
-48116.682424
-48116.826827
-48116.232987
-48116.805843
-48116.888734
-48116.863732
-48116.788329
-48116.452552
-48114.998827
-48115.481053
-48114.311412
-48114.347730
-48114.667051
-48116.238790
-48116.161730
-48116.296872
-48114.835913
-48114.870814
-48114.675938
-48114.547746
-48116.430658
-48114.768926
-48115.051149
-48115.998601
-48115.082645
-48116.149805
-48114.045005
-48116.322053
-48114.529824
-48114.645497
-48114.610739
-48114.541982
-48114.586493
-48116.247741
-48114.989318
-48116.308031
-48116.395715
-48114.395368
-48114.239036
-48114.732825
-48114.557138
-48114.319836
-48114.747723
-48114.467271
-48114.715869
-48114.545084
-48114.862075
-48116.141339
-48114.789042
-48114.690759
-48114.418980
-48116.010250
-48114.250573
-48114.179353
-48114.863574
-48116.412074
-48114.462511
-48113.704661
-48115.919019
-48115.892320
-48115.466675
-48113.933979
-48113.876203
-48113.741049
-48113.984756
-48113.838486
-48113.915982
-48114.339395
-48113.944630
-48114.056063
-48113.876271
-48114.398593
-48115.726376
-48115.730606
-48113.734552
-48114.381355
-48114.267497
-48113.756349
-48115.842431
-48115.958075
-48113.895179
-48115.875324
-48116.046538
-48113.665498
-48114.213192
-48115.414591
-48113.912261
-48115.691130
-48114.213698
-48115.491645
-48113.692083
-48113.885448
-48113.741857
-48114.129791
-48115.945181
-48115.433089
-48114.401930
-48114.208838
-48113.789397
-48114.751628
-48115.836974
-48114.255797
-48114.204615
-48114.073315
-48115.777815
-48113.935432
-48115.924667
-48114.387547
-48114.685271
-48115.488766
-48115.212891
-48115.410430
-48115.394265
-48114.804451
-48115.083308
-48114.796871
-48114.744007
-48115.121893
-48114.267998
-48114.132711
-48114.366643
-48115.421125
-48114.419300
-48114.305704
-48115.450054
-48115.164457
-48114.608258
-48114.334904
-48115.357153
-48114.645757
-48115.083239
-48114.833349
-48114.741603
-48115.114509
-48115.101546
-48114.973272
-48114.889841
-48114.523512
-48114.501432
-48115.360508
-48115.341317
-48115.360955
-48115.220751
-48115.504665
-48115.159956
-48115.105690
-48114.597684
-48114.665662
-48114.915885
-48114.697872
-48114.240025
-48114.510045
-48114.925986
-48115.144968
-48115.306911
-48114.751931
-48114.949787
-48113.876363
-48114.154726
-48114.086580
-48113.441295
-48114.050845
-48114.388935
-48114.108498
-48113.815993
-48113.430255
-48114.726777
-48114.232958
-48114.211990
-48113.759523
-48113.783616
-48113.368024
-48112.954877
-48113.621700
-48114.531869
-48113.417134
-48113.935480
-48114.222038
-48113.291690
-48113.870799
-48113.387959
-48113.442842
-48113.496081
-48114.356200
-48113.680304
-48113.596364
-48114.671727
-48114.064539
-48114.189579
-48114.559766
-48114.351455
-48113.913050
-48113.699128
-48114.556260
-48113.454799
-48113.831052
-48114.261034
-48113.727600
-48113.860233
-48113.203070
-48113.639455
-48114.121485
-48113.663318
-48114.629671
-48114.030583
-48113.767503
-48113.915958
