0.090678	-0.363284	0.265760	0.144832	0.059850	0.063133	-0.133487	-0.080286	0.201191	0.080960	0.016453	-0.310829	-1.998697	0.596408	0.550682	-1.735018	-0.489878	-4.057585	0.158406	-0.164722	-1.818147	2.068797	0.409604	3.846254	1.088938	0.119538	1.835661	-0.683252	-1.334524	0.696582	-1.398429	0.880698	-1.725350	-1.335937	-1.961994	-3.636892	-1.969253	1.128128	1.572432	1.482545	-2.327964	-1.521910	0.985569	-2.663714	0.385529	-2.472262	0.940558	-0.139666	2.788607	0.180216	-4.250797	1.229771	2.697066	-1.805791	-0.014427	4.265627	8.391757	1.812802	1.870900	3.302083	3.032125	1.697441	2.840087	5.213529	-2.036511	-4.068534	2.138598	4.928122	-1.627926	2.499668	-2.864905	-2.087944	2.973105	-7.439264	-2.867020	0.896967	-2.674018	3.493873	-6.038638	5.380211	2.372959	3.046453	-3.548645	-0.952452	-0.700325	2.779436	0.366216	-5.700585	-8.572721	0.878936	0.583243	-2.269549	0.355307	0.250907	0.470564	-0.029702	0.038443	0.480524	0.490314	-0.008200	-0.259759	0.114791	-2.196637	4.048052	1.475039	-1.666130	-3.590324	2.169408	-0.307145	-1.454165	4.149086	1.121016	1.561181	3.826719	1.333300	-3.257519	-1.940687	0.566402	-0.653058	1.575985	-6.021594	-2.950317	-0.809470	-3.597437	2.365495	-0.190296	0.342196	-0.970781	2.168158	-0.289086	-0.816642	-3.470866	4.989476	9.662950	-1.448129	0.256069	-3.037730	0.230824	-2.965429	1.836146	0.306603	-1.389386	-1.453256	1.035337	1.282088	0.272393	-6.121156	-1.036970	-1.052664	-2.083437	-0.320247	3.583274	-0.334718	0.388949	-4.423420	-2.214712	-0.311501	-0.552667	-0.301563	-1.418425	0.120622	-1.397461	1.014150	-0.656706	-0.262774	1.323232	0.637614	4.675670	0.037572	-1.032538	0.155005	0.237823	2.634630	-0.600195	-1.764077	0.276131	-0.761164	-3.768601	-1.622088	-1.880695	-0.234479	-0.788515	-1.527595	0.582153	-0.627579	5.506673	0.814794	0.387619	-0.942360	0.155095	1.226430	-1.499735	-0.119054	0.584437	-0.711850	-1.433089	0.937326	-0.598852	1.495454	0.866197	-0.354995	0.821955	0.553363	-0.144640	-0.524297	-0.043464	1.051057	-1.390293	-3.828856	3.189267	-2.540280	1.925352	0.297725	-0.287724	0.409820	-0.988901	0.014223	0.030470	0.047693	-1.027074	1.584202	0.154167	2.866893	-4.904391	-2.628474	-1.311291	7.115036	0.672599	3.090550	1.816516	0.508187	-3.730027	2.034699	0.364229	1.098579	0.675674	-0.818943	-0.158615	-0.820884	0.991769	1.221342	4.230220	-2.457828	0.331127	1.160576	1.695294	4.109651	-3.854247	-1.016320	1.898370	0.005776	0.138321	
-0.014168	-0.341650	-0.084596	0.227326	0.325224	0.166163	-0.285302	0.092817	-0.198173	-0.031520	-0.271433	0.105851	0.399041	-2.614565	-0.244728	1.287842	0.219404	-0.394232	-0.098249	-0.830869	0.179121	-0.270329	-1.218183	-1.219808	-0.029530	-2.373696	-2.865413	-0.754323	5.891840	-2.478371	-0.185865	-1.783932	-0.858217	-2.976027	-2.296325	-0.281351	1.338621	1.085736	-0.612291	2.707775	-1.843017	-1.354637	-1.097536	2.933147	-0.171756	-1.409875	-1.456392	-1.147151	0.728435	-1.673723	-2.350308	-0.544760	-3.557168	0.679386	1.064031	-3.512087	9.264818	-1.020002	0.676514	2.600997	-7.883773	-6.958578	-0.719481	-1.332478	-2.866458	-0.925488	-1.514814	2.065040	-2.190469	-6.477050	0.491479	-4.382663	1.053067	1.884487	3.342938	-0.816783	3.465274	-3.065052	-2.785705	-2.004403	3.475329	0.058327	7.113481	2.948991	-1.104582	2.884882	0.171292	1.076127	0.684157	-0.272054	-3.642855	5.640184	-0.122693	1.394662	1.976969	-0.656698	0.867642	-1.576443	-0.460027	0.128375	0.360172	-0.264523	1.596485	-2.454039	-1.034616	-0.540990	-1.322271	0.736018	0.374651	0.406707	1.372834	0.067941	0.963664	0.859469	0.095380	-4.135298	-0.454709	-1.090965	0.283836	1.029291	3.399252	2.105082	0.586600	-2.180966	0.300810	1.032913	0.508812	1.064475	-1.264376	0.749087	0.277136	2.400984	-3.474127	0.068422	2.197904	-0.507686	3.231764	0.533742	5.391153	-1.796786	1.965269	1.515901	1.590185	1.134407	1.084465	1.403693	-8.522949	1.083632	0.197238	2.011766	2.217156	-7.019836	-0.275587	-1.363330	-3.523761	1.454692	1.637199	1.035804	-0.274182	-1.890936	1.170486	-1.193041	1.794365	0.499395	-1.143411	0.647215	0.227235	1.422504	-2.116012	-0.276410	-0.880414	0.492075	0.237616	0.029265	0.465297	-0.234186	-1.126313	-2.059321	-1.317510	-1.059966	0.132854	-1.408563	3.007010	0.276777	1.238898	0.399183	-1.787140	2.307729	1.574567	-0.507912	3.311642	1.075088	5.616190	5.489878	-2.144881	2.343087	-0.461499	1.134112	-0.386429	0.456907	3.455488	1.151154	0.847724	2.476199	-0.767162	0.299276	0.051788	-1.318887	-0.772505	1.112503	3.134008	-2.046425	0.180137	0.141672	1.132470	-0.382002	1.247680	-0.754402	-3.397226	1.315457	2.103556	-0.175690	-2.695539	2.226395	1.362258	-0.247948	-4.686230	2.364096	0.853485	-0.822174	-0.028770	-1.250864	-1.265909	-1.079723	0.524852	-0.334050	-3.480491	0.293059	-0.989843	0.922890	-0.565895	2.181149	-1.108706	1.305257	-4.267796	-3.320411	3.085996	-0.432717	-0.214027	2.154767	3.051150	-0.936193	
0.118440	-0.450719	0.034901	-0.012121	0.294205	-0.156419	-0.224971	0.210950	0.288375	0.003678	-0.224827	-0.065734	0.493161	-0.932029	1.068613	0.912909	1.015973	-0.363213	-0.586338	2.411661	-2.272326	-1.241450	-2.977984	-2.658617	-1.219316	-0.481850	1.834326	0.596483	0.465245	-3.592415	0.150643	-2.535685	0.213706	0.725198	1.707601	-6.277554	-0.206589	0.739567	2.643166	0.242336	0.735420	0.578309	-1.152472	0.468027	3.171136	-0.610767	0.627960	-1.643999	4.421858	-0.040671	-5.829458	1.388242	-0.791148	0.001111	1.447965	-4.109052	-1.877672	-3.627876	-8.028366	5.242393	-2.450622	-2.433072	2.756484	-2.348298	1.298860	-7.435577	-2.937148	-3.881312	-3.867445	1.848675	-9.819097	-4.928322	1.956093	3.856082	-1.906858	4.702486	-3.106264	2.505071	0.118016	0.371614	-1.053577	-1.092152	-0.056161	-0.449592	-2.144673	3.549577	0.629747	0.423925	0.499962	-0.172952	-8.919777	14.334624	1.810417	1.151146	1.953494	0.059822	-0.115891	0.751520	0.143245	-0.598850	-0.980696	0.112688	2.350874	-3.338096	-1.367134	-1.112691	-3.180766	1.549232	-0.484270	-0.427805	5.480440	0.321437	0.705082	0.119139	2.977418	-3.462013	-1.940052	0.266620	1.176233	0.425566	-1.328477	-1.797197	1.192530	-1.418450	1.015346	0.480182	-0.122205	-0.107336	1.568221	1.142457	-3.313369	4.144760	0.590152	-0.001525	-0.654394	0.125282	2.453192	-0.282639	-3.246503	1.323641	0.144638	0.733353	-0.240634	-0.087660	1.110000	1.937332	-3.041464	0.745242	-1.899344	1.157736	9.246901	-15.206689	-2.505213	-0.577227	2.607186	1.662741	-4.281253	-2.048000	1.375572	-2.075289	2.466419	1.367221	0.086327	0.317180	-2.403812	1.798687	0.994064	6.440491	-1.638857	-3.390470	1.825860	0.681444	6.249336	-2.199319	-0.409533	0.536303	-0.484627	4.605359	3.839899	-0.994221	1.179992	-0.210876	-2.369062	0.597682	0.078528	5.479234	1.009179	-1.179501	-1.269339	-0.277979	-2.016306	0.464522	0.269918	1.213964	-0.656209	0.966958	0.237656	0.018224	0.665334	0.054096	-0.698343	-0.968468	0.514859	-0.410268	0.895702	1.286644	-0.710350	-0.997868	9.107517	4.224821	-1.411086	1.528649	0.903720	5.303648	3.090793	1.161628	-0.094300	0.872475	-2.666806	-0.468408	-0.100191	-3.921819	-3.010567	4.741289	1.838892	0.532146	1.007048	-0.496826	-1.986297	-2.629870	1.511483	-1.757378	1.639582	1.883700	-0.366500	0.333660	2.640251	0.468366	0.035235	2.986354	0.198185	3.493484	-1.361721	-0.046109	-3.175794	0.316681	-0.098248	0.704180	-0.214939	-1.902641	-2.278494	-0.169401	
-0.184598	-0.065820	0.199809	-0.171246	-0.041494	-0.121318	-0.118172	0.191206	0.357894	0.078972	-0.197419	-0.096104	1.187057	0.590114	1.680576	-5.489384	5.338434	0.108797	-0.309074	4.026072	-1.575722	5.615129	3.896031	2.624887	-0.888813	-0.135822	0.544852	-0.192047	3.376054	6.344272	-1.431066	-1.948954	-2.532807	1.600708	2.281295	-2.465120	-1.470128	1.291574	1.323510	-1.157940	0.345780	-2.430190	1.240478	2.791021	4.513164	0.606278	-3.188988	-1.855579	-0.938886	1.252349	-0.226415	-0.860054	-0.440313	-2.578514	2.386633	-0.103969	1.850057	-1.072208	-4.069155	1.259854	10.208166	-5.007041	5.136266	2.925126	-0.810007	-7.656281	0.496023	-0.725915	7.731633	-4.658984	5.251235	-1.761578	10.044936	14.025706	-1.985498	0.868931	4.672328	-3.224165	4.463072	-2.740131	0.196628	-1.144287	-0.527399	-4.969710	1.923489	-3.389802	-0.428661	-10.145264	-19.686430	2.160098	-10.908753	17.174866	-1.401862	0.142529	-0.397060	-0.425347	-0.624115	0.232380	0.280356	-0.992622	-0.707910	0.473078	-1.462086	2.885899	1.162859	-0.335064	-0.491626	0.203515	-0.333013	-1.394322	3.057980	-0.390856	-1.260909	-0.282606	-2.311712	1.896429	-0.074023	0.021722	-2.127003	0.024660	-2.911229	-0.817640	-1.035553	-0.203381	0.386266	0.427524	-0.913082	-0.510681	3.274149	-0.208891	-0.886517	-2.182048	10.527914	20.835123	-2.399732	1.081581	0.956689	-0.867272	7.005495	-3.199827	1.577566	-2.368422	-2.237050	1.435418	0.061651	1.838972	-4.511967	-1.160508	0.071593	-8.424640	11.531579	-18.949462	-0.522894	0.431694	-2.980463	0.554480	0.281117	0.325693	0.851407	-2.810408	2.184813	0.954850	1.540635	0.756744	-2.751674	-0.129503	-0.255207	1.790520	-1.792511	1.628303	1.297094	0.027026	0.550477	0.396207	-0.424706	1.865455	1.345485	0.665309	-0.482110	1.806750	-1.486104	0.396135	-2.130116	1.667724	-0.419618	10.097589	0.956176	0.805823	0.234800	-1.318800	3.468175	-0.930130	0.363929	0.432011	-0.183568	-2.671804	-1.692166	-4.274602	0.952895	-0.606306	-7.904623	1.739384	-0.846071	3.487123	2.100315	1.219818	-0.668708	-0.211293	-1.180806	-0.321323	-2.536181	1.166974	0.331287	-3.352994	-2.657766	1.058134	-0.126078	-0.178765	-4.856951	0.317783	0.200786	-1.204162	1.419701	-3.851238	-2.383012	-1.360765	-7.719140	2.302837	-12.864957	-12.184266	3.724419	4.156226	-1.992600	0.810767	1.318564	0.962993	3.871182	0.327373	-0.450690	0.614753	0.067204	-0.661958	0.568098	2.163416	5.352084	0.768275	-1.560004	1.025295	0.605809	-6.511947	-3.731164	-1.776791	
0.119589	-0.098761	0.467182	-0.120619	0.186101	-0.126723	0.021047	-0.061947	0.375123	-0.162334	0.202804	0.012176	-5.229763	-3.674630	-3.503536	0.461112	1.445296	-0.237791	-0.166704	-1.006677	-2.142965	2.501882	0.231878	1.984996	-0.542228	0.730184	-0.607606	2.602476	3.323672	7.291400	-0.236153	-0.863811	0.275022	-1.599492	1.111471	1.665803	-2.999667	-0.178714	-0.350049	-0.007920	0.924169	-0.523934	0.489971	0.487227	-2.835774	0.790713	0.586889	0.357121	2.247945	-0.633777	-4.667541	-2.601290	0.599963	-2.701076	2.599648	3.910884	2.704988	1.031135	2.633587	3.125686	6.303507	-2.255039	5.247418	0.719181	3.535122	-3.671302	2.383019	-2.365281	-3.704829	0.570666	-5.987630	-7.050503	-2.183929	-0.130247	0.939621	-2.337532	-1.008961	2.823243	2.867207	-1.169924	1.098395	-5.856997	-7.781659	3.626728	0.090087	-0.141346	-0.327631	1.193085	3.234248	-0.671679	0.807526	-1.974811	-0.523048	2.884078	5.354796	-1.528476	-2.691021	3.431358	1.360327	1.670554	3.037187	-1.449877	1.072368	-3.531372	-1.265513	0.282889	0.989433	-0.398487	-1.529783	0.495547	3.513989	-1.146935	-0.551660	-1.416172	3.348506	-0.557361	-2.324273	-0.520653	-1.911167	0.905792	-0.708374	0.047837	0.048274	-1.349267	0.191648	-0.388119	1.133953	0.278698	4.116372	-0.729594	1.016363	-3.299983	-0.286116	-3.875724	0.500305	0.738076	2.373294	-0.823904	1.501340	-1.194065	0.268158	-0.001520	-1.078312	0.863540	1.232276	-0.401286	-1.120622	-1.376115	-0.587689	-5.896930	-0.049817	4.079639	3.448393	0.242435	-3.461404	-0.268999	-3.204821	-2.677232	0.720007	1.027712	0.282748	-1.670017	-0.369104	0.082322	-1.831707	-0.803888	1.399609	-1.680862	-3.540276	-6.269086	1.549324	-0.402933	-1.502688	0.012616	-1.433091	0.585655	-0.841417	6.012189	5.424461	-4.395799	-0.680001	-0.556495	-0.072253	0.378781	-1.284210	4.321008	6.654541	-3.874961	-5.119784	0.407484	-3.004515	-0.744890	1.867367	1.195949	-0.481604	-9.492709	2.647625	-3.637483	-1.730125	0.350382	5.299090	0.718349	0.721464	4.688069	-3.082504	-4.241076	3.367385	-0.581561	8.499789	2.710000	-0.394698	0.914492	0.661817	-4.086103	-2.666881	1.006989	-0.024687	-0.529483	0.218215	1.583389	-0.873815	3.639058	1.031311	8.697338	6.237864	1.358988	1.068192	-1.678398	-2.101326	-1.177053	-0.817021	1.957535	-0.692259	-0.660500	-0.021911	-1.572652	-3.746310	0.143405	1.308812	0.393363	1.915764	-1.289297	-1.625043	1.026061	2.002917	-0.131732	-2.115860	0.606004	0.600653	0.510272	-1.532096	0.516651	
0.189892	-0.375933	-0.063266	0.081983	-0.105469	0.062305	-0.044802	-0.041699	-0.095995	-0.204054	-0.021649	0.455954	0.668004	-0.253783	2.450501	1.229793	2.364451	1.828389	0.880555	3.627733	-1.271125	-0.824142	0.646531	-1.335431	1.067767	-2.731530	3.581778	-1.863207	-0.148235	0.042916	-2.017190	1.022813	-1.398205	0.769614	1.005048	-0.353049	0.501281	0.489597	0.325567	0.127165	-2.623893	-1.896076	0.910119	0.084848	1.311058	-1.038255	-1.317482	0.255390	1.144564	3.106006	0.697929	-1.084786	1.071734	-7.153052	1.408800	-1.902021	-3.122861	8.549783	6.823105	-1.357093	-3.473534	0.330443	1.792374	3.453557	-2.093358	1.271634	-1.932395	1.540491	2.749257	3.338909	1.448527	5.160887	1.932487	-4.307335	-4.063332	-2.771581	2.895966	0.316260	-2.656563	-7.274082	-5.155011	-0.622831	6.353850	-4.263986	2.457967	-4.261169	-0.632712	0.813081	0.428017	-0.071067	0.324432	-0.800590	0.241021	1.726513	3.104669	-0.391596	-0.387833	0.626300	0.563911	-1.706675	-2.743989	2.328952	-0.412778	0.226550	0.207322	-1.816172	-3.585262	0.892727	-1.073722	2.106189	-2.345804	-0.910703	-2.235956	-3.475760	-3.366554	4.834015	0.132364	0.648193	-3.672899	-1.497618	-2.731555	-1.372909	0.170432	-1.324073	0.993050	0.931615	-1.347511	-0.914431	1.706302	1.301710	-1.116874	3.450550	-1.290392	0.091759	-0.444947	-1.029778	-6.240496	1.821494	-5.626942	2.991417	0.430706	4.514100	1.354432	2.413639	-0.694207	-0.524405	1.507598	-0.203436	-1.049609	-0.602103	-0.377727	1.011600	-0.831331	-0.673198	3.224702	0.703490	1.884145	0.800383	0.451019	0.602748	-1.838253	-1.015035	-0.546879	-0.835336	2.802829	0.474628	0.146889	2.563308	-1.956800	-2.970726	1.062669	-0.406626	-5.059583	0.538740	0.112631	-0.500657	1.718077	-8.116713	-4.942015	-2.077057	0.566741	-0.919367	-0.580439	-1.473857	2.513476	-3.610385	0.183079	-0.796290	-0.860921	0.593528	0.196876	-0.261634	0.434805	0.624648	-1.056022	1.073882	-0.325853	-0.181216	1.407858	1.369510	0.185731	0.309502	0.545801	-4.470075	1.825577	1.846507	-1.272951	0.972161	-0.297534	-0.496324	1.753441	-1.649067	-1.175004	-0.771190	-0.271765	-1.282926	-0.364830	-1.096194	2.911275	0.262534	0.381782	-0.353107	1.570867	0.404418	-0.060093	-0.972630	2.922282	2.000921	0.135287	-0.484643	0.342434	0.500759	0.169192	0.700814	0.612482	1.638815	4.860000	-0.622618	-0.274691	1.691581	2.983256	3.150191	-0.804590	1.898706	1.212722	-1.890914	-1.368231	1.185302	0.306878	1.908086	1.064397	1.329514	
0.084246	-0.161204	-0.332555	0.115880	0.027177	-0.144626	-0.089300	-0.099581	0.104662	-0.173950	0.056256	-0.030359	-0.588932	-0.984340	-1.599623	3.047292	1.313938	1.237837	-0.401228	1.610879	-0.096281	0.808210	-0.538824	6.692516	0.621985	0.183318	-0.563156	1.334534	0.413913	1.070667	-2.055405	-0.351100	-0.468469	-2.491439	3.190110	-8.553977	2.996058	-1.589519	2.013770	2.206010	-1.152702	-1.415537	-1.378646	1.297507	0.508542	-2.614854	0.097070	-2.355527	5.436109	-9.858255	6.683401	4.725992	4.706720	-3.938154	2.557161	-3.441743	0.005305	2.069728	-2.773916	-4.004739	-0.187353	3.659067	1.780027	-3.606654	-12.700589	6.773239	-2.058343	-2.129403	0.732220	0.830673	-0.876744	4.070283	-3.341463	-1.604428	7.654503	-0.837157	-1.941027	4.496304	3.940284	-0.553847	0.847271	-5.183322	-3.889083	-2.311872	1.626853	-3.776074	-0.313066	-0.119276	-0.763193	0.227310	-6.403690	9.333257	1.746345	1.716554	2.756930	-0.402233	-1.643650	2.513745	1.290245	0.101163	0.508046	0.052034	0.896002	-1.598067	-0.187773	-1.406929	-1.306488	0.511676	1.135124	0.567421	-1.490198	-0.386240	-0.258288	-0.454636	-2.077903	3.625090	0.213712	-0.937194	3.074720	0.046227	6.455182	4.660194	-1.334854	-8.969195	4.098677	-3.732391	-0.208516	-1.219496	-2.087543	-1.304137	0.627136	-5.836682	-1.126775	-0.393094	1.481454	-1.473648	-6.754662	3.318730	-4.462161	2.366758	1.017815	0.784340	0.021752	0.185698	0.799912	-0.596140	-1.015476	-1.634700	0.833372	-3.095951	5.517344	-10.519203	-2.240425	-1.281334	2.803939	2.415094	-2.782947	0.022994	-0.974744	1.444756	-0.041698	-2.099497	-1.702605	-0.281272	2.126520	1.769934	-0.139151	9.226320	-0.990571	-2.225135	-0.117222	-0.519737	-1.532988	-0.703817	-0.133943	0.911444	2.063329	4.828359	3.779798	0.442745	-0.538639	0.699014	-2.136558	-0.402059	-0.057218	-1.407269	0.848543	-1.782220	0.069967	1.406483	9.966565	-5.378944	-2.449889	-2.886685	-0.192990	-0.079697	-1.515650	0.008556	1.837298	2.255911	1.524417	-0.482481	-0.156885	-3.277917	0.861412	-1.396457	0.781924	-0.026775	3.053263	0.684854	1.544118	-0.942944	0.059807	0.206363	1.161266	-1.490787	1.061132	0.597822	-8.326892	0.883596	1.517986	-0.725112	-1.266125	0.864171	0.068696	0.182411	3.241997	-0.357140	1.688367	0.803706	0.049215	0.842793	-0.915723	-0.281483	-1.165184	0.617177	0.377953	0.502464	0.757244	1.246556	3.380478	0.782645	-1.642560	-0.179434	1.306619	1.276635	0.153358	0.098040	-0.229034	-2.085020	-1.079617	0.163684	
-0.106028	-0.011193	-0.027131	-0.243310	-0.406577	0.367725	-0.143580	-0.010710	0.215687	-0.010392	0.323826	-0.166763	1.133715	2.151743	0.140967	-2.400578	3.521395	0.342123	0.623008	-2.445996	-1.984900	1.841712	-2.133254	-0.355338	0.807338	1.796975	-0.137148	0.257115	1.396235	2.769360	-1.274522	0.797587	-1.949836	-1.011630	1.736858	0.073638	-0.954388	0.141780	2.511612	-0.248592	-1.527653	2.056173	-0.850847	-1.129842	2.299598	-0.844596	2.342263	-1.359327	-2.708180	-3.903643	-0.825055	1.675371	1.908812	0.833075	-2.882535	2.819998	-1.621454	-2.156151	-5.494448	2.243572	2.611438	-5.129949	2.578708	4.354679	0.704331	1.876175	-2.721263	1.507511	-3.984275	-7.976575	3.390050	-2.243644	1.402266	-6.130831	0.073618	1.755128	-1.747320	-2.269794	9.819008	3.277070	2.485021	2.393236	0.811340	-0.184075	4.470668	-6.192554	-0.683337	1.190682	3.183444	-0.297204	-4.800753	7.860689	0.171365	-0.912243	-1.522600	0.064552	0.029277	-0.203592	-0.147612	-2.515428	-5.155775	2.070769	-0.051891	0.188129	0.120693	-0.802084	-3.146739	1.180162	0.646105	-0.337794	0.968018	0.136478	-1.517509	-3.110731	-3.122146	6.916827	-0.036844	-0.444003	-1.967280	1.007059	-0.654141	1.426777	-2.033719	-1.170610	1.362929	0.189905	0.857873	1.357714	1.883406	-0.092259	0.088222	0.541476	0.108957	-4.520893	1.359052	-0.939252	-0.225027	0.338085	8.359480	-3.729809	1.643756	-0.600101	0.992316	-2.812061	-0.670759	-0.750361	3.267945	-1.017924	-0.049472	-3.559820	5.223704	-8.580778	-1.260277	0.918394	-1.337165	-1.370272	-1.201855	0.337856	-0.572004	2.642186	-1.553043	0.221579	0.837979	0.691376	2.157736	1.398548	0.371920	1.723009	-0.718676	2.935444	-0.962480	2.050736	3.344429	-2.969101	1.494519	0.000560	0.122179	-2.653828	-1.958320	0.573093	-0.604585	1.501159	-3.402720	0.414753	-1.786142	0.610676	-0.582781	-0.728282	-0.756639	-0.364583	3.358570	-0.811866	1.536507	1.209888	-0.186928	-0.879175	0.093284	-0.301692	-1.172730	0.627501	3.904751	-0.473624	-1.503911	1.979539	2.364300	5.483175	-1.893426	-0.667332	-2.311385	-0.032524	0.403515	-0.887026	-0.791294	1.874240	1.400625	1.187180	0.750760	0.408656	-2.618660	0.029823	0.099360	4.532713	-1.423896	-0.082616	1.652834	-1.618431	6.957961	1.041908	-1.286135	-1.174614	0.070497	0.529801	0.015251	-0.950767	1.303754	-1.935394	-2.939651	-1.008356	0.928748	-1.871427	0.685556	3.356416	-0.524875	-1.021540	-1.463956	0.509332	-2.969370	1.436643	0.832681	-5.958953	-1.870191	-2.786334	
-0.125731	0.076323	-0.360763	-0.089847	-0.027579	0.018192	-0.080261	0.189790	-0.059706	-0.163324	-0.403115	-0.098363	0.680896	-0.099506	-0.611409	-0.682429	3.298704	0.223781	-0.009655	-0.182825	0.521534	3.117020	1.120934	-0.379973	-0.567346	-2.034360	-0.027211	-7.048071	-2.349865	-1.377924	-2.338332	0.333815	1.067416	0.817540	-1.938253	-0.087002	1.044728	-1.185724	2.231292	-0.885088	-0.047530	-0.150409	0.744445	1.866358	2.276266	0.721000	-0.820691	-0.754664	1.713005	-4.691941	-4.515703	-3.470290	-0.524036	0.686346	2.850848	3.327943	-3.038523	1.906443	2.483456	-0.079254	4.913441	1.176862	-1.795516	0.438027	-1.177074	-4.747779	5.038154	-3.714643	0.848874	0.092042	-1.988143	3.466602	1.787956	1.212949	0.776826	-0.964696	-0.101083	7.127320	-3.164417	-2.133786	2.026602	3.831241	3.694130	-0.569678	-1.000906	1.725693	0.439911	-5.641816	-9.812960	2.454324	0.258951	-0.035163	-0.075376	2.666830	3.916067	-1.268719	0.686943	-0.996879	-0.548354	-2.277691	-3.976141	1.498470	-9.679628	17.096252	8.637026	-0.973354	-0.631754	0.324459	0.291081	-0.246607	3.826941	0.157904	0.587456	1.793262	-1.089499	-3.218798	-0.944513	-0.366320	0.327042	1.745795	1.604108	1.616000	0.371529	-3.508809	2.687548	0.655331	-0.181369	-0.826244	-2.285837	-0.349769	-0.419978	-0.698540	6.195117	10.849569	-2.220882	0.482108	3.621481	0.490958	3.556233	-2.626682	0.292606	0.822991	-0.387198	1.481805	0.360670	-0.106491	-0.227468	-0.316610	0.976005	-3.164423	0.279739	-0.660552	-1.647970	-0.875122	-1.082547	1.037702	-1.039308	-0.792431	1.110953	0.503208	0.297287	0.990053	-1.295199	0.967423	0.891923	-1.295734	-1.862481	-1.867259	-2.050431	-4.610878	0.595994	-1.052959	0.942085	1.486255	-1.972904	-0.123218	-1.262103	-3.351752	-2.313245	0.462956	-0.037976	0.379024	0.601524	0.590435	1.012877	3.517188	-2.146294	2.474438	1.945524	-0.137982	-2.120133	1.291188	-1.605826	-1.697467	1.246642	-2.536355	-0.066565	-1.765232	-0.340364	0.970143	2.360637	0.242563	-0.080141	-4.018398	2.634472	5.153121	-2.248545	-0.910312	5.648407	0.767760	-4.047707	2.661478	0.642570	-3.751680	-2.889363	0.095414	-0.519175	-0.700419	-1.524707	-1.122559	0.694559	-9.279291	9.839174	-18.272866	-9.753554	-0.180277	-3.189881	1.464842	8.974735	3.205866	1.416375	-3.408082	1.368750	0.881566	1.240057	0.310323	-3.501821	0.500884	-0.428247	0.768934	3.528704	-0.153319	-0.821215	0.584087	-2.973645	-1.030093	-0.827480	0.502049	0.238268	3.782955	1.950242	-0.289558	
0.090136	0.223968	0.036340	-0.322510	0.417674	-0.366514	-0.108841	-0.063829	-0.274674	-0.047046	-0.223644	-0.341333	1.907051	-3.047870	-1.884837	4.322717	-2.279147	-0.934103	0.274410	0.142131	0.417397	2.207168	-4.709088	-0.094465	1.775057	-0.567375	2.466754	-0.717687	1.266409	-1.023822	-0.558780	0.947272	0.222712	3.229913	2.189993	-0.707508	0.694404	2.836884	3.774952	-1.278048	0.917045	0.437146	1.635781	-1.074976	1.510808	1.185654	0.478082	1.559561	-0.224170	-0.133464	0.323708	5.249699	-0.992973	-2.007168	-1.536186	-2.800961	1.150198	-3.900250	-0.126676	1.449333	-4.046097	2.107283	0.999584	-0.706297	2.909221	-2.256184	-2.457109	-1.211783	1.729411	0.277152	4.538074	0.877565	3.436011	4.180559	-5.022445	8.509707	-8.145194	-5.920645	-0.417326	3.337134	1.494934	4.146735	1.461693	-2.031584	-0.280957	0.839144	0.035129	-3.649605	-7.093582	1.367865	-1.169021	0.667641	0.368729	-1.456855	-1.638069	0.192148	0.216227	-0.778523	-0.421353	-3.129882	-5.139596	2.538324	0.748218	-1.089850	-0.849319	6.909287	11.309617	-5.522357	-0.427671	1.865708	-5.059135	-1.492324	2.887599	-1.138777	-0.140367	-3.957733	-3.563986	0.163740	2.023169	0.520508	0.140076	-0.550134	0.976244	1.468272	-0.676940	0.308008	0.912396	0.282516	-0.450774	0.096622	-0.827637	-0.936781	4.449175	7.084958	-1.282991	-1.191945	1.699832	2.719969	-0.794348	1.843384	1.690309	-4.810276	-3.305712	1.285045	-0.801240	-1.728203	3.224017	0.129411	1.244221	2.821365	0.924618	0.694071	1.765755	0.135012	0.753291	0.649346	0.970641	0.834290	-0.685367	-8.513762	7.293537	2.448839	0.813374	0.458703	-2.649535	0.658076	-0.887263	1.929529	1.602126	1.468914	-0.174744	1.292370	-1.645348	-0.807169	-0.487568	0.209310	-0.919306	-0.848365	-0.764078	1.910556	0.365142	1.351948	-3.968036	-1.904583	-1.210567	-2.718366	-1.235499	-1.500182	-2.375481	0.519200	-3.678416	-0.591773	-3.610974	-1.276202	-0.173174	2.118286	0.596344	2.024616	-0.835254	-1.099709	0.036008	0.298422	0.530477	-2.247886	1.584211	5.687904	-2.802997	-0.024659	0.945068	-1.809077	1.121969	-0.975390	-1.293862	0.220597	1.908798	-1.243141	-0.088883	-1.408882	2.462981	0.057671	1.733025	5.011208	-0.813630	3.533574	3.995121	-0.476777	3.576009	0.034589	-3.644880	-4.700574	1.613525	1.985825	-2.320124	0.329718	-0.993688	-0.344190	-3.090307	0.196510	-0.931001	1.245731	-6.548017	-12.131746	5.793860	-0.380369	-2.040384	1.296939	-1.836658	0.156389	-0.902523	-1.130664	-2.355846	1.497118	
0.133260	-0.095460	0.258214	0.074930	-0.441109	0.289275	-0.170753	0.311255	-0.019141	-0.105936	0.264342	-0.083809	-0.723115	-1.781754	-1.761638	-1.542747	2.555846	1.812594	0.887930	-2.675100	-0.205024	-5.009080	0.287899	4.717368	0.534512	-0.649242	-3.236027	2.322969	5.041577	-0.326485	-1.946190	3.688969	0.634188	2.330957	2.983187	1.848976	-1.045825	2.754999	-3.545585	0.694377	-1.558351	1.239540	1.236461	1.202392	-0.427633	0.230978	0.660038	-0.718822	0.428012	-6.066899	1.649883	2.202460	14.876426	-7.673230	5.342104	4.867929	-3.622067	3.212626	-2.914577	3.599526	0.483723	-1.890283	-0.942088	1.752174	-4.384152	1.080547	-5.583495	-0.846034	-2.260655	0.696308	-4.313911	1.220207	-2.365646	2.663636	-2.823313	-0.993010	-1.733254	-2.772379	7.176274	2.331602	-3.275994	4.940272	-1.839612	-3.594906	1.115085	-1.932982	-0.153055	1.993684	3.625936	-1.020647	-0.525904	0.218192	-0.265915	-1.357753	-1.690093	0.396122	4.802748	-8.194858	-3.851759	0.250716	0.684240	0.019176	-1.339088	2.495522	0.952400	0.119779	0.546970	-0.276827	0.086744	-0.068558	4.505084	0.285989	0.399928	-0.178778	-2.056779	1.213059	0.837482	-0.084210	-0.495584	-0.687528	5.230070	4.566452	-1.566971	-6.744280	3.374051	-1.539488	0.671723	0.455581	0.931349	-2.039045	0.700879	-6.341672	-1.710203	-3.656108	1.919269	-3.910682	-15.887388	6.630257	-1.611816	1.267636	-0.520547	2.681155	1.923577	0.334504	-0.470280	0.236836	1.526400	1.362376	-2.005469	2.115707	0.799502	-0.976516	0.542245	-0.972637	-4.156903	1.993350	-3.903060	-3.088999	1.811344	0.367580	-0.566309	0.203960	-0.368158	-0.977538	-0.233165	0.155275	-1.762023	-2.249202	0.499657	2.736261	-0.656221	1.397482	1.961027	-2.790097	-4.585294	3.039065	-0.794610	-5.139578	-1.909067	-1.397542	0.397444	0.301433	-2.345061	-0.351747	0.739810	-1.127252	-4.874446	8.865766	5.020289	-1.316562	3.453045	0.493457	-0.299101	0.120389	0.228577	2.932565	-2.435742	0.015009	0.473131	0.221806	-0.602285	0.346498	0.242480	-1.026908	0.300411	-2.915198	2.012503	-0.527953	1.962171	0.684741	6.167204	-2.449885	1.578082	5.805238	2.866623	1.599153	-0.922225	-0.361854	2.715453	-0.039788	1.226871	2.866854	0.981962	-2.645115	-0.399667	0.488896	0.942510	-0.276713	-4.410479	-3.016673	0.599423	4.017926	-0.928519	0.884410	-0.351332	1.019703	6.749141	0.112092	0.698942	5.026617	0.469941	0.862146	-1.908732	-0.140714	-1.608064	-0.133607	-2.414323	0.587782	-0.922966	-7.039965	-3.127602	-2.986665	
-0.040325	-0.657097	0.149357	0.244959	0.321033	0.371501	0.249555	-0.010507	-0.213211	-0.122553	0.036329	-0.010259	-0.093897	-0.535936	-0.024145	4.076299	0.943658	2.521265	-0.940550	-1.783675	-0.699552	-0.139681	1.194519	-3.496339	1.213740	-0.125576	3.300853	-0.203553	-0.349492	-1.263273	-0.823642	-1.334905	-1.444664	5.872009	-2.201629	1.550055	-1.307178	-0.955311	3.774613	0.050563	-0.862102	-2.738834	-0.486252	-1.242620	1.231541	-1.076226	3.803246	-2.881742	-1.521863	3.616434	2.488219	0.748528	-4.093551	-3.604599	1.215155	4.858244	-1.677995	-0.109662	-1.419855	-1.573829	2.968787	0.285755	-6.210664	3.624676	0.879064	-2.382175	3.992358	-1.623328	3.467140	-1.082923	-0.829857	6.361843	-2.078733	-0.756601	-0.588321	-0.735758	-0.367389	4.246736	1.446854	1.274214	1.323678	0.083156	4.472229	3.844452	3.381346	-5.683945	-1.311275	-0.378713	-1.046611	-0.016167	-1.994087	3.364263	0.495197	2.387454	4.094005	-0.205278	-0.949560	0.696672	0.427601	2.394641	4.098205	-2.164305	2.066159	-3.605432	-1.779147	1.162313	2.200896	-1.144196	0.889568	-0.773237	-3.510115	-1.201710	1.585073	-4.159197	-0.778671	5.580265	-1.505639	0.418919	-3.461260	-0.631037	-2.256659	-1.072612	-0.465000	-0.623325	-0.581168	1.179126	-0.380772	1.815149	4.126783	1.050721	-1.659873	0.903175	2.483902	-0.023326	-0.046434	0.298924	4.054814	0.577713	0.786421	-0.088809	0.579807	0.425366	0.394026	-0.397733	-1.289496	-0.625151	2.089470	-0.411753	0.471335	-0.078435	1.350222	-2.567280	0.598445	-0.569379	-3.298779	-0.149872	-3.570537	-1.822299	-0.043107	3.743514	-2.406399	-0.823088	0.277402	1.323908	-0.184465	-0.353897	2.069291	0.152521	-2.743877	-5.616169	2.247749	-0.889531	-1.103728	1.545363	-0.845898	1.663459	0.330665	0.777134	0.511828	0.360380	-0.163487	0.341295	1.120614	-1.782821	-1.745711	-2.213959	1.791354	-0.560780	-2.282990	-1.211039	3.687228	0.802550	-7.376582	-3.198277	0.178464	1.785578	0.378740	0.371418	-1.314024	-1.321378	-1.819694	-0.417563	1.898396	-4.962648	-1.638035	-3.856573	2.462631	-0.499116	2.434182	-1.219035	0.146335	0.553874	0.677878	-3.658435	-1.732577	0.115111	1.625226	-1.252194	2.625708	0.786998	1.504029	0.043651	-2.597241	4.121883	3.561390	0.443704	1.990846	-0.537488	3.445830	0.688806	0.170866	-1.930127	1.289440	-0.485321	0.063646	-0.091392	0.856923	-0.027754	0.164049	-0.573630	-1.597005	-1.655043	1.731104	1.106575	-5.776340	-2.131584	-6.057744	1.862999	-1.123126	-0.604256	-0.747909	-0.189988	