-142510.777579
-142510.111764
-142510.826237
-142511.216179
-142510.438939
-142511.456096
-142511.022847
-142510.677582
-142511.179619
-142510.897508
-142510.796723
-142511.285931
-142510.774452
-142510.845521
-142511.411656
-142511.349107
-142510.670373
-142511.101029
-142511.105188
-142511.041158
-142511.397820
-142510.413106
-142511.032990
-142510.676588
-142510.089811
-142510.974282
-142510.930742
-142511.161306
-142510.736292
-142511.567318
-142511.174529
-142511.299061
-142510.254268
-142510.518595
-142510.827886
-142511.211686
-142510.581394
-142510.872574
-142510.313055
-142511.154314
-142511.500702
-142510.479353
-142511.146010
-142511.241846
-142510.869697
-142510.944360
-142510.557465
-142510.935466
-142510.664065
-142510.864647
-142503.744932
-142507.092342
-142503.302758
-142507.863534
-142507.412409
-142502.838815
-142505.834615
-142506.874448
-142508.366486
-142504.218176
-142503.736679
-142504.511554
-142503.191745
-142506.187828
-142501.859835
-142502.677523
-142501.891233
-142507.288957
-142501.687898
-142508.321666
-142508.497618
-142508.236171
-142505.290346
-142503.582773
-142501.735381
-142502.641164
-142507.186297
-142503.045477
-142508.035945
-142507.750049
-142502.533788
-142505.271236
-142507.970802
-142506.705667
-142505.919059
-142508.343118
-142507.100980
-142507.380780
-142502.443351
-142503.824034
-142503.219796
-142502.986200
-142503.472718
-142505.833831
-142503.591794
-142502.907796
-142508.146191
-142503.937464
-142502.449444
-142503.966677
-142501.198841
-142502.147347
-142500.415825
-142501.331226
-142501.752471
-142501.338275
-142501.416169
-142501.225474
-142502.173462
-142500.250937
-142501.323869
-142501.278025
-142500.739994
-142500.886137
-142502.136303
-142500.676461
-142500.710715
-142501.641341
-142501.758204
-142501.565989
-142502.034572
-142501.107695
-142501.734327
-142500.145651
-142501.079042
-142501.535072
-142501.519583
-142501.151866
-142501.049588
-142502.615090
-142500.646853
-142502.628063
-142501.954413
-142500.155947
-142501.770072
-142501.749188
-142501.566400
-142502.450742
-142501.299524
-142501.532457
-142501.596227
-142501.312497
-142501.862667
-142501.777925
-142501.481793
-142501.020537
-142502.354483
-142502.412741
-142501.639136
-142500.949396
-142490.908447
-142489.889948
-142490.488708
-142491.163636
-142491.784719
-142490.511093
-142491.468428
-142491.086738
-142492.472345
-142491.978805
-142492.330632
-142492.956248
-142492.079832
-142491.181153
-142491.862597
-142492.067720
-142491.165537
-142490.794186
-142491.044886
-142491.580522
-142492.040556
-142490.401305
-142491.336364
-142491.133425
-142490.409654
-142492.739909
-142492.727961
-142490.993008
-142492.635999
-142491.535009
-142492.718074
-142490.741827
-142492.627615
-142492.061475
-142491.960443
-142491.482333
-142491.615714
-142491.214515
-142492.287588
-142491.863696
-142490.578657
-142491.192314
-142493.154364
-142490.847369
-142492.601699
-142491.719590
-142490.575312
-142491.848997
-142491.181987
-142491.440759
-142481.954662
-142481.521203
-142484.725327
-142483.696842
-142481.936202
-142482.612284
-142480.854262
-142483.165175
-142484.220607
-142482.901548
-142483.757190
-142483.178963
-142483.279936
-142485.601557
-142482.871244
-142482.856895
-142484.056735
-142483.415172
-142481.704819
-142482.513152
-142483.036220
-142482.999411
-142482.416484
-142483.928897
-142482.156900
-142482.208297
-142482.558148
-142482.769615
-142482.022793
-142482.220903
-142484.483167
-142481.998193
-142482.671325
-142483.222166
-142483.265174
-142482.713763
-142485.005703
-142482.920083
-142483.938449
-142481.438991
-142483.669909
-142482.810477
-142482.936963
-142482.386919
-142483.920506
-142482.804843
-142482.766236
-142483.394425
-142481.322140
-142482.985057
-142475.539235
-142476.060943
-142475.443180
-142477.288084
-142474.830718
-142475.440120
-142475.654089
-142475.972434
-142474.974955
-142476.064768
-142475.364912
-142475.566284
-142476.574452
-142477.009780
-142474.742229
-142476.756569
-142477.000489
-142476.551988
-142474.862185
-142477.590733
-142475.538129
-142475.826678
-142476.504184
-142478.025099
-142474.618113
-142476.251061
-142477.025426
-142476.158881
-142477.427096
-142476.802369
-142474.808928
-142476.125225
-142475.624248
-142476.027815
-142474.680752
-142475.946439
-142473.900821
-142477.644171
-142475.311283
-142476.346449
-142476.453258
-142474.060015
-142475.709291
-142476.157963
-142476.375912
-142474.867606
-142475.996500
-142477.070720
-142475.182736
-142475.170716
-142501.239555
-142500.928149
-142501.161809
-142501.623173
-142500.739992
-142500.920817
-142500.852691
-142501.526457
-142502.058675
-142501.512446
-142502.268576
-142501.477339
-142501.147204
-142503.276979
-142501.390678
-142501.801622
-142501.401388
-142502.408025
-142503.284563
-142503.142859
-142500.810441
-142501.664354
-142501.730085
-142502.046476
-142501.428653
-142501.393417
-142502.135767
-142500.661446
-142501.551567
-142501.331240
-142500.860908
-142500.395410
-142502.366474
-142502.683497
-142501.944662
-142501.644712
-142502.335628
-142501.262111
-142501.731279
-142502.681145
-142502.584906
-142501.853459
-142501.722931
-142501.424144
-142502.636150
-142484.977860
-142483.279431
-142484.398928
-142485.420533
-142482.210185
-142483.344548
-142484.029293
-142483.998984
-142482.085207
-142481.517366
-142483.038657
-142482.352083
-142484.707775
-142483.843781
-142483.603310
-142484.778875
-142485.572396
-142482.611672
-142485.030181
-142483.687318
-142484.481092
-142483.548947
-142484.180597
-142483.991189
-142483.452433
-142482.051991
-142483.975459
-142483.019553
-142484.361605
-142483.851007
-142482.706047
-142483.083663
-142484.294638
-142482.285602
-142482.649255
-142484.699347
-142483.017340
-142482.201614
-142484.268217
-142483.067243
-142483.530366
-142483.026101
-142484.653451
-142482.783563
-142483.775347
-142483.430414
-142484.369413
-142483.386666
-142482.476582
-142484.006856
-142476.635071
-142475.662358
-142475.063738
-142476.370994
-142476.440297
-142476.023746
-142475.723995
-142474.927978
-142476.578479
-142475.776998
-142476.768404
-142476.504898
-142477.343874
-142476.349639
-142478.361725
-142475.233879
-142476.065472
-142477.904831
-142478.263764
-142476.548999
-142477.586469
-142474.902858
-142476.935103
-142477.135195
-142476.445422
-142475.444386
-142476.610797
-142476.503808
-142475.860999
-142474.934932
-142475.758671
-142474.435158
-142476.133492
-142476.479850
-142476.230922
-142476.105633
-142475.472573
-142476.657775
-142476.511199
-142477.166624
-142475.320288
-142477.433607
-142475.481854
-142474.215321
-142477.146473
-142476.046918
-142476.250152
-142476.657615
-142477.302847
-142476.219592
