-142510.950806
-142511.358485
-142510.632539
-142506.075989
-142510.871463
-142510.682180
-142511.340296
-142511.124001
-142505.313772
-142509.407657
-142511.440620
-142505.270651
-142511.241605
-142511.004127
-142510.998277
-142510.692628
-142505.438263
-142511.195529
-142510.765036
-142511.299714
-142511.156995
-142511.166386
-142511.394251
-142505.362280
-142511.018165
-142511.092092
-142505.508876
-142511.509558
-142510.781337
-142511.304981
-142511.037284
-142505.271674
-142511.318734
-142506.098916
-142510.714580
-142510.889387
-142511.473588
-142510.724155
-142510.679196
-142510.689761
-142505.939498
-142505.252969
-142511.001694
-142511.425170
-142510.861705
-142505.409729
-142511.363930
-142511.022091
-142511.398601
-142510.761758
-142508.502166
-142506.880777
-142508.405347
-142508.137538
-142507.260925
-142507.644768
-142507.682775
-142508.414003
-142506.875109
-142507.546438
-142508.376692
-142508.622355
-142506.954991
-142508.482590
-142507.315947
-142508.706084
-142508.475910
-142507.956288
-142507.988793
-142507.150803
-142508.034896
-142507.427068
-142507.738718
-142507.497760
-142508.230835
-142507.330380
-142506.329088
-142507.792380
-142508.296583
-142508.064800
-142507.712970
-142508.101886
-142507.627680
-142507.060332
-142507.640618
-142508.320629
-142507.331690
-142508.002105
-142507.887662
-142508.443783
-142508.751628
-142506.149767
-142507.968307
-142507.812827
-142507.889044
-142506.431908
-142507.933521
-142507.223043
-142507.739612
-142507.541699
-142501.688695
-142501.505281
-142501.686800
-142501.702431
-142501.302855
-142501.639263
-142502.568001
-142501.360704
-142501.478712
-142502.766786
-142501.859956
-142502.526062
-142501.078063
-142502.223377
-142501.289331
-142502.352771
-142501.551727
-142501.684083
-142501.752241
-142502.058484
-142501.401168
-142501.309367
-142501.892268
-142502.382808
-142501.988571
-142502.135610
-142503.724813
-142502.638470
-142502.844326
-142500.435050
-142502.504124
-142501.716334
-142501.832957
-142502.515239
-142502.196261
-142501.832701
-142500.875436
-142501.776309
-142501.373257
-142501.663922
-142502.169361
-142501.698721
-142501.880339
-142500.994076
-142500.454043
-142501.695909
-142502.403922
-142501.608608
-142501.388527
-142501.153035
-142491.152848
-142493.392338
-142493.151872
-142492.819752
-142492.139919
-142492.097218
-142491.355783
-142490.471979
-142491.767253
-142493.181039
-142492.089459
-142491.740660
-142491.733886
-142492.034082
-142492.315274
-142490.546667
-142492.534127
-142493.192326
-142492.255607
-142489.833184
-142492.542336
-142492.353991
-142490.941808
-142492.645758
-142492.789032
-142492.092491
-142492.351727
-142491.211296
-142491.818010
-142492.847110
-142491.776616
-142491.954903
-142492.321613
-142491.981418
-142492.981225
-142492.224119
-142492.580920
-142492.460356
-142491.113464
-142494.037236
-142492.066375
-142491.868778
-142492.306774
-142492.245053
-142492.115193
-142492.535613
-142492.265620
-142492.188717
-142493.099100
-142491.884870
-142483.397433
-142483.223136
-142484.984105
-142484.164890
-142482.759728
-142482.604841
-142484.216483
-142484.848247
-142484.615084
-142483.746220
-142484.632302
-142483.903254
-142483.824869
-142483.204838
-142484.815279
-142485.324711
-142483.312140
-142483.218496
-142484.053801
-142484.167069
-142482.351805
-142483.341222
-142484.818793
-142483.107759
-142484.835053
-142482.729899
-142484.152398
-142483.312704
-142482.060947
-142482.181296
-142484.172566
-142484.558753
-142483.426310
-142483.599376
-142483.728462
-142483.904474
-142484.623738
-142482.601329
-142483.145436
-142484.406826
-142481.965331
-142482.518393
-142483.526085
-142485.541034
-142485.251921
-142483.522641
-142483.343462
-142481.854640
-142484.576010
-142482.956768
-142476.904838
-142477.871527
-142475.816855
-142478.308494
-142478.044445
-142474.553509
-142477.319166
-142477.224339
-142477.810583
-142475.522420
-142475.132827
-142475.926872
-142477.129779
-142478.726297
-142476.004578
-142476.484014
-142476.142980
-142476.198541
-142475.978697
-142477.690569
-142475.661449
-142476.775844
-142477.454374
-142475.983972
-142475.026456
-142474.336380
-142477.756619
-142477.186219
-142477.914896
-142477.948708
-142476.282076
-142477.961056
-142475.582786
-142476.252479
-142478.124098
-142476.255668
-142478.094385
-142477.158926
-142475.926326
-142476.433904
-142476.355846
-142478.253999
-142476.694478
-142475.943042
-142475.326856
-142476.162233
-142476.549656
-142476.553845
-142476.730247
-142477.815976
-142502.164221
-142504.295001
-142503.620940
-142503.005127
-142503.358916
-142504.122363
-142502.372094
-142502.667776
-142502.188416
-142503.888086
-142502.767562
-142501.462907
-142501.608927
-142503.017099
-142503.377434
-142503.735490
-142503.992446
-142502.093005
-142504.107828
-142502.187855
-142502.927733
-142503.108089
-142503.514893
-142502.941680
-142503.118258
-142503.760709
-142501.374534
-142503.007332
-142503.706127
-142502.545087
-142504.412634
-142502.906931
-142502.195421
-142502.071504
-142503.745929
-142503.503104
-142502.053501
-142504.046326
-142503.974645
-142501.899760
-142504.144614
-142503.679016
-142502.988478
-142502.978691
-142504.141249
-142501.872886
-142502.394551
-142504.920841
-142502.572669
-142502.338271
-142483.877168
-142483.261755
-142483.625044
-142483.212520
-142483.504522
-142485.151608
-142482.294378
-142482.491242
-142484.435886
-142484.709863
-142482.850812
-142484.329644
-142484.910958
-142483.437381
-142483.849541
-142483.522082
-142484.236261
-142484.596780
-142483.992907
-142483.795534
-142482.938295
-142483.447614
-142484.358745
-142486.410251
-142483.247128
-142484.432607
-142483.513800
-142484.940336
-142481.928803
-142484.997980
-142482.908969
-142482.698146
-142484.320587
-142484.407761
-142482.980186
-142483.088400
-142484.072820
-142483.665572
-142483.351762
-142481.821541
-142484.320953
-142481.908968
-142483.663030
-142483.986122
-142483.646560
-142482.899558
-142482.891225
-142484.963851
-142483.568172
-142484.385441
-142476.829170
-142478.863480
-142475.718395
-142477.047030
-142475.272528
-142476.474291
-142475.580332
-142475.973266
-142473.941817
-142475.625956
-142473.991333
-142474.927733
-142474.357384
-142473.897953
-142476.665118
-142476.176572
-142475.334970
-142475.602150
-142477.309638
-142477.251039
-142476.452991
-142477.339914
-142476.099574
-142475.143242
-142475.934966
-142475.993059
-142474.811002
-142476.069552
-142477.614943
-142475.462483
-142475.151236
-142475.340363
-142476.394889
-142475.447492
-142476.359426
-142474.783528
-142477.072804
-142477.131572
-142474.658873
-142476.039624
-142477.350411
-142476.530109
-142475.024891
-142476.321500
-142476.719215
-142477.680362
-142475.742692
-142475.568170
-142476.858514
-142476.946585
