-142517.749289
-142500.283929
-142497.646248
-142497.361732
-142498.484226
-142497.909867
-142497.320195
-142498.400858
-142498.030612
-142497.839161
-142496.615143
-142497.785465
-142497.160550
-142497.991831
-142496.910893
-142497.388924
-142498.397343
-142499.357793
-142499.766129
-142498.904331
-142498.559851
-142500.109394
-142499.404977
-142499.680926
-142499.041134
-142498.858035
-142498.698136
-142498.616030
-142499.896331
-142499.914714
-142498.773098
-142498.047910
-142497.962768
-142500.152790
-142499.258630
-142499.671185
-142499.119435
-142498.996756
-142499.088447
-142500.267834
-142500.376106
-142499.386936
-142498.099927
-142499.769436
-142499.652464
-142499.897853
-142499.941948
-142499.763548
-142499.994764
-142500.798273
-142500.157021
-142499.115845
-142498.752418
-142499.797964
-142500.120350
-142499.415581
-142499.806532
-142499.754607
-142499.969888
-142498.536112
-142499.975750
-142499.850376
-142499.254138
-142500.149655
-142500.596115
-142499.537600
-142500.594721
-142499.481779
-142499.646050
-142499.004129
-142500.274000
-142501.239916
-142500.288190
-142499.542053
-142501.455210
-142500.904775
-142500.436433
-142498.131033
-142498.887949
-142499.580845
-142499.943553
-142500.259586
-142499.982816
-142499.953003
-142499.863046
-142501.111245
-142498.977657
-142498.851234
-142499.842148
-142498.201564
-142499.829841
-142499.562010
-142500.112780
-142500.111929
-142500.560350
-142498.842136
-142500.818690
-142499.565642
-142500.957321
-142500.390873
-142499.102911
-142501.059170
-142500.758426
-142500.991447
-142497.963474
-142500.691755
-142500.385311
-142501.106609
-142499.597788
-142500.283622
-142500.575643
-142499.776070
-142499.909558
-142500.097577
-142499.643063
-142501.893883
-142501.608514
-142499.565740
-142499.487702
-142499.703093
-142499.985915
-142499.454806
-142500.154657
-142499.944422
-142499.820689
-142500.172875
-142499.934731
-142501.143905
-142500.585669
-142500.470959
-142498.613098
-142500.368804
-142500.519322
-142501.746941
-142501.303930
-142501.183117
-142501.278036
-142499.918730
-142500.303138
-142500.242155
-142499.633295
-142499.515007
-142500.187461
-142500.353487
-142499.415195
-142501.889493
-142500.206064
-142499.353277
-142500.034952
-142501.738880
-142500.359591
-142500.972718
-142501.675494
-142500.743991
-142499.555299
-142501.580703
-142500.879688
-142501.414712
-142501.798763
-142501.293217
-142500.422106
-142499.571539
-142500.363797
-142500.919655
-142501.266345
-142501.455640
-142500.371509
-142500.790073
-142501.112764
-142501.538690
-142498.998882
-142500.756125
-142501.466547
-142500.612811
-142501.024596
-142500.797416
-142500.454144
-142500.978032
-142501.867691
-142502.019243
-142502.206640
-142500.430531
-142501.816863
-142501.237669
-142500.327675
-142501.668985
-142500.450816
-142501.078991
-142499.795088
-142501.709542
-142501.026111
-142501.556107
-142500.421303
-142502.196385
-142501.691277
-142503.195553
-142503.200811
-142500.980618
-142501.949461
-142502.238796
-142501.053557
-142501.664146
-142501.922170
-142500.994438
-142503.434174
-142503.439429
-142503.342793
-142503.420042
-142503.492523
-142503.198326
-142503.421894
-142502.421239
-142501.368764
-142502.921242
-142503.767534
-142502.897705
-142503.653190
-142502.253161
-142500.584383
-142503.524597
-142502.024438
-142502.049204
-142503.205130
-142502.078714
-142502.266775
-142500.250264
-142502.231221
-142502.338217
-142503.395858
-142502.981413
-142502.951820
-142502.637825
-142502.992120
-142504.201190
-142500.693803
-142502.328034
-142501.669547
-142500.650475
-142503.097434
-142503.805613
-142501.562832
-142502.995499
-142502.792943
-142500.458514
-142498.858355
-142499.723419
-142500.001145
-142498.877497
-142497.723396
-142498.856414
-142499.354417
-142498.061292
-142499.103480
-142497.791027
-142498.998579
-142498.916143
-142499.161540
-142497.932014
-142499.534887
-142498.429805
-142500.142118
-142498.670108
-142498.905786
-142497.212995
-142498.659018
-142499.274754
-142499.946330
-142499.628194
-142498.777822
-142497.189875
-142500.240809
-142498.128049
-142498.525764
-142496.887399
-142499.467436
-142499.541613
-142497.586920
-142500.106869
-142497.449522
-142497.707836
-142498.367678
-142500.473996
-142497.545777
-142497.584076
-142499.538442
-142497.210979
-142498.719644
-142498.349186
-142497.692609
-142500.293842
-142499.491889
-142496.642743
-142498.340765
-142500.569478
-142499.977091
-142499.942247
-142500.451892
-142501.871013
-142501.299346
-142500.494079
-142500.378700
-142501.499683
-142499.879775
-142500.497081
-142501.402789
-142499.483642
-142500.389909
-142500.674758
-142500.585424
-142501.093510
-142500.002772
-142499.614256
-142499.999113
-142501.003544
-142500.638111
-142500.060882
-142499.986438
-142500.863181
-142500.503882
-142499.834787
-142501.207760
-142500.544045
-142500.880599
-142500.725745
-142499.521912
-142500.046542
-142499.341008
-142499.223733
-142501.090800
-142499.854170
-142499.629823
-142500.094201
-142501.481433
-142498.939360
-142499.483893
-142500.418786
-142500.024455
-142499.043727
-142500.097050
-142500.368439
-142500.029888
-142500.905758
-142500.662599
-142495.633557
-142496.000704
-142496.298677
-142496.979449
-142496.677071
-142496.728653
-142494.853744
-142494.817760
-142496.995899
-142495.885660
-142497.134701
-142494.905948
-142495.770809
-142495.814605
-142497.069659
-142496.488849
-142495.208261
-142496.571315
-142496.793023
-142497.005623
-142495.330524
-142496.220108
-142495.564611
-142496.712077
-142496.473070
-142495.912502
-142497.137062
-142495.856505
-142496.678568
-142497.030039
-142496.797181
-142497.094169
-142496.337274
-142497.022377
-142496.504581
-142496.355191
-142495.340380
-142495.867689
-142497.434393
-142496.474323
-142496.491657
-142496.661211
-142496.291666
-142497.081674
-142497.125002
-142495.386398
-142494.958920
-142495.940615
-142495.967005
-142496.398054
-142492.222430
-142493.709234
-142493.594881
-142492.687910
-142492.469690
-142491.076328
-142493.382871
-142492.757390
-142493.191912
-142493.304352
-142491.938688
-142492.036099
-142493.362630
-142491.378458
-142493.257802
-142492.442995
-142492.181693
-142492.687081
-142492.818959
-142493.053381
-142492.701202
-142492.449783
-142493.255737
-142491.859426
-142492.654727
-142492.359376
-142492.981019
-142493.457257
-142493.080333
-142494.560710
-142493.543168
-142494.059061
-142492.313743
-142492.097539
-142492.550503
-142491.353572
-142492.255018
-142491.485546
-142492.494755
-142492.218696
-142493.018830
-142493.485858
-142491.300798
-142492.761221
-142491.778731
-142492.731063
-142493.229113
-142492.548123
-142492.451352
-142493.074516
-142487.488387
-142490.109366
-142489.388728
-142488.833772
-142489.945835
-142489.283977
-142488.581234
-142489.004631
-142491.091970
-142488.490933
-142487.611450
-142489.540469
-142488.159824
-142489.170065
-142489.175829
-142488.318744
-142488.654476
-142489.396970
-142490.180628
-142489.104927
-142487.947073
-142487.144262
-142490.352509
-142489.875276
-142489.449523
-142488.691630
-142489.260127
-142488.002428
-142490.093971
-142490.435289
-142488.685917
-142488.418870
-142488.844163
-142490.051316
-142488.825682
-142487.941888
-142488.838713
-142489.146578
-142488.744307
-142487.119087
-142487.923985
-142490.457623
-142488.151565
-142487.860272
-142488.744726
-142488.639066
-142488.478753
-142487.190043
-142488.373036
-142488.799912
-142501.898405
-142501.832476
-142502.538860
-142501.367156
-142500.405472
-142500.056903
-142500.638726
-142500.356606
-142500.351914
-142501.391583
-142501.978359
-142502.798260
-142502.493832
-142501.882026
-142500.675129
-142500.709363
-142501.624061
-142501.720487
-142500.498796
-142501.515812
-142502.007404
-142500.517539
-142501.441696
-142501.329631
-142501.871365
-142502.571106
-142499.983874
-142502.367743
-142501.403386
-142500.845584
-142500.644231
-142501.547397
-142500.712954
-142501.194570
-142500.890185
-142501.610946
-142501.263288
-142501.008086
-142501.767661
-142500.121258
-142502.043957
-142502.071770
-142501.390980
-142502.469207
-142501.570494
-142501.055764
-142501.069699
-142501.156992
-142500.341828
-142501.568239
-142502.685232
-142502.237742
-142502.445518
-142501.640881
-142502.583647
-142500.625506
-142503.215444
-142502.711672
-142503.150081
-142501.030630
-142501.889903
-142500.906883
-142501.560752
-142501.172427
-142503.217615
-142503.592960
-142501.843093
-142502.934666
-142502.389086
-142500.962040
-142502.414651
-142500.793268
-142501.567282
-142503.242280
-142499.844118
-142502.821230
-142501.809059
-142502.704924
-142503.875219
-142503.519673
-142503.299130
-142503.822181
-142503.082659
-142501.716648
-142503.306121
-142502.666919
-142501.433740
-142503.176555
-142501.976203
-142501.893224
-142502.190586
-142502.057880
-142503.001926
-142502.097015
-142501.901482
-142501.768793
-142502.602015
-142503.222959
-142503.310095
-142500.655609
-142499.596477
-142498.868574
-142500.095716
-142498.926030
-142499.139172
-142499.611434
-142499.418978
-142498.389619
-142498.767895
-142499.580063
-142499.990490
-142498.605143
-142499.794687
-142499.585370
-142499.199788
-142500.189286
-142500.101616
-142501.260725
-142499.458456
-142498.583209
-142499.546012
-142499.853045
-142500.126539
-142499.505821
-142500.076848
-142499.121738
-142499.239843
-142499.372791
-142499.759561
-142499.362371
-142498.910584
-142498.505450
-142500.843509
-142500.242729
-142499.679459
-142500.983799
-142498.150369
-142500.807382
-142499.786879
-142498.550016
-142500.863450
-142499.980058
-142499.781015
-142498.811732
-142500.707751
-142501.530105
-142500.475130
-142500.186728
-142500.546244
-142499.651776
