-142508.243242
-142510.041456
-142511.733326
-142509.481893
-142509.162692
-142509.706832
-142507.100971
-142507.510013
-142511.066839
-142508.511377
-142507.121050
-142510.666485
-142511.311996
-142509.782741
-142510.928836
-142509.464686
-142507.603607
-142510.781836
-142511.046551
-142509.975406
-142507.179072
-142510.619126
-142511.485146
-142511.117499
-142509.423245
-142510.408289
-142508.292234
-142507.276808
-142509.229629
-142508.301609
-142510.319646
-142510.499267
-142510.858720
-142511.269425
-142511.641692
-142511.125606
-142511.194368
-142508.189080
-142510.622776
-142511.732986
-142510.976775
-142510.891759
-142509.199453
-142510.723822
-142511.029939
-142511.686352
-142510.749565
-142510.878172
-142510.120272
-142511.079773
-142507.609907
-142507.877194
-142508.447295
-142506.535444
-142508.102747
-142508.263147
-142506.261490
-142507.791141
-142504.475692
-142508.299356
-142506.349466
-142507.258535
-142505.504159
-142507.758499
-142505.325453
-142505.658412
-142507.008883
-142508.140411
-142507.586736
-142505.583811
-142504.993876
-142507.961505
-142504.420422
-142506.958782
-142507.543907
-142505.591466
-142508.138661
-142505.805118
-142507.356266
-142504.872565
-142505.739835
-142507.843124
-142507.877659
-142508.345483
-142507.329242
-142508.174548
-142508.008616
-142507.689383
-142505.100723
-142505.120770
-142508.059486
-142507.769840
-142508.149621
-142507.614253
-142508.132226
-142506.202365
-142507.730276
-142506.080525
-142506.928309
-142507.765824
-142503.182391
-142503.205708
-142502.151864
-142501.810628
-142502.638649
-142503.687784
-142503.115111
-142502.902791
-142503.021161
-142502.483128
-142501.240651
-142503.946345
-142503.123676
-142503.297614
-142503.010988
-142503.208926
-142502.384761
-142502.958562
-142503.549874
-142502.914597
-142502.428166
-142502.591181
-142502.901016
-142501.834816
-142501.517122
-142503.346658
-142502.435756
-142502.000730
-142503.282407
-142503.524896
-142503.045517
-142502.454275
-142502.244099
-142502.130211
-142502.180645
-142503.009539
-142502.812777
-142502.399384
-142502.466995
-142501.377308
-142502.906178
-142503.140771
-142502.929743
-142503.590497
-142502.924079
-142503.498625
-142502.284685
-142503.930838
-142502.140332
-142502.260108
-142493.853324
-142493.692396
-142491.772549
-142492.508079
-142492.421685
-142493.168976
-142492.554034
-142491.734303
-142493.137815
-142493.022924
-142492.248645
-142492.253922
-142492.443026
-142493.333096
-142492.545124
-142492.860967
-142492.531708
-142493.157321
-142493.029914
-142493.929172
-142493.104739
-142493.131508
-142492.671319
-142492.352098
-142492.108852
-142493.691224
-142492.196196
-142492.975578
-142491.953997
-142492.538452
-142492.551331
-142492.599296
-142491.785914
-142490.946273
-142493.333234
-142491.799580
-142492.899771
-142491.869432
-142493.875016
-142493.466400
-142490.699849
-142492.108856
-142490.801733
-142492.444346
-142491.198202
-142491.546031
-142492.671858
-142491.887458
-142492.617965
-142493.577572
-142481.510851
-142484.850319
-142484.771942
-142483.952814
-142483.203511
-142483.259440
-142483.727350
-142481.708299
-142484.895486
-142484.411082
-142485.099047
-142484.617352
-142483.511099
-142482.184462
-142484.901341
-142483.680485
-142484.568464
-142485.260389
-142485.268736
-142483.525222
-142483.618335
-142482.829576
-142483.182606
-142484.081502
-142483.829562
-142481.991001
-142482.665149
-142483.903521
-142483.433008
-142484.536380
-142484.275201
-142484.474423
-142483.329447
-142483.707398
-142482.314345
-142484.688681
-142483.197857
-142483.600149
-142484.687840
-142483.235086
-142483.664498
-142486.099551
-142483.818985
-142485.084604
-142484.386788
-142483.385813
-142482.603342
-142483.699969
-142481.088821
-142483.736964
-142477.240790
-142476.956156
-142477.129699
-142478.042792
-142477.564618
-142478.114710
-142476.885483
-142476.348208
-142475.956804
-142476.557794
-142474.073157
-142475.629530
-142475.183755
-142476.870700
-142477.574589
-142474.565788
-142476.244826
-142475.004702
-142477.466127
-142473.956371
-142478.108535
-142476.988070
-142476.175128
-142476.901232
-142476.795938
-142477.451883
-142477.339222
-142475.566650
-142474.348855
-142477.243902
-142475.238870
-142477.916434
-142478.166665
-142476.559519
-142478.433345
-142476.818905
-142474.669557
-142476.252601
-142477.174726
-142476.740498
-142477.054496
-142475.980552
-142476.021100
-142478.443940
-142476.044281
-142475.685903
-142477.105175
-142474.867851
-142477.639223
-142478.150272
-142502.957588
-142503.868265
-142503.608029
-142503.884970
-142502.800227
-142503.050017
-142503.371018
-142504.020485
-142504.412818
-142503.211755
-142503.486462
-142504.673366
-142503.714362
-142503.584911
-142503.108372
-142503.141532
-142503.386431
-142501.532903
-142502.881995
-142504.123232
-142504.894905
-142503.012474
-142503.087198
-142503.386095
-142504.013390
-142503.366164
-142503.541194
-142503.493116
-142502.956981
-142503.727635
-142503.774018
-142503.809796
-142502.704780
-142502.900328
-142504.647258
-142502.929534
-142503.652763
-142504.692359
-142503.382673
-142503.969057
-142503.580729
-142504.236826
-142502.957771
-142503.005246
-142503.414196
-142503.601619
-142503.526235
-142503.067978
-142502.849103
-142502.945024
-142503.648464
-142503.984468
-142503.787917
-142503.640738
-142503.681580
-142503.712454
-142502.405956
-142504.791540
-142504.349729
-142504.002373
-142503.293760
-142503.302492
-142504.676710
-142504.500436
-142503.515424
-142504.093687
-142502.986826
-142502.787201
-142503.749227
-142502.992047
-142504.669103
-142503.900111
-142503.145184
-142505.028652
-142503.265209
-142503.385851
-142504.090804
-142504.846376
-142502.070446
-142504.427362
-142503.077767
-142502.656732
-142503.049605
-142502.283237
-142502.211514
-142503.980119
-142503.958524
-142503.052154
-142504.036753
-142503.856912
-142503.035394
-142504.078982
-142504.041567
-142503.794841
-142503.509921
-142504.457999
-142502.947503
-142504.521409
-142504.456782
-142504.393203
-142476.612267
-142477.182010
-142477.536509
-142476.036873
-142477.153605
-142475.571626
-142478.402965
-142464.501924
-142474.716734
-142476.404462
-142476.524539
-142477.261877
-142478.608125
-142475.881706
-142476.106396
-142474.390797
-142476.840969
-142476.157285
-142478.239690
-142477.530293
-142477.658771
-142474.503903
-142427.948209
-142475.804212
-142476.642052
-142476.766215
-142476.865264
-142477.137540
-142477.802167
-142477.386495
-142476.519046
-142476.618036
-142477.813691
-142476.176222
-142477.762386
-142478.171916
-142478.893147
-142476.225158
-142477.976387
-142478.648349
-142475.837920
-142478.065208
-142477.308892
-142477.152390
-142477.242537
-142478.848855
-142476.793587
-142478.145686
-142476.872433
-142478.035955
