12.450005	0.000000	0.000000	0.000000	12.450005	0.000000	0.000000	0.000000	12.450005	
12.450005	0.000000	0.000000	0.000000	12.450005	0.000000	0.000000	0.000000	12.450005	
12.450005	0.000000	0.000000	0.000000	12.450005	0.000000	0.000000	0.000000	12.450005	
12.450005	0.000000	0.000000	0.000000	12.450005	0.000000	0.000000	0.000000	12.450005	
12.450005	0.000000	0.000000	0.000000	12.450005	0.000000	0.000000	0.000000	12.450005	
12.450005	0.000000	0.000000	0.000000	12.450005	0.000000	0.000000	0.000000	12.450005	
12.450005	0.000000	0.000000	0.000000	12.450005	0.000000	0.000000	0.000000	12.450005	
12.450005	0.000000	0.000000	0.000000	12.450005	0.000000	0.000000	0.000000	12.450005	
12.450005	0.000000	0.000000	0.000000	12.450005	0.000000	0.000000	0.000000	12.450005	
12.450005	0.000000	0.000000	0.000000	12.450005	0.000000	0.000000	0.000000	12.450005	
12.450005	0.000000	0.000000	0.000000	12.450005	0.000000	0.000000	0.000000	12.450005	
12.450005	0.000000	0.000000	0.000000	12.450005	0.000000	0.000000	0.000000	12.450005	
12.450005	0.000000	0.000000	0.000000	12.450005	0.000000	0.000000	0.000000	12.450005	
12.450005	0.000000	0.000000	0.000000	12.450005	0.000000	0.000000	0.000000	12.450005	
12.450005	0.000000	0.000000	0.000000	12.450005	0.000000	0.000000	0.000000	12.450005	
12.450005	0.000000	0.000000	0.000000	12.450005	0.000000	0.000000	0.000000	12.450005	
12.450005	0.000000	0.000000	0.000000	12.450005	0.000000	0.000000	0.000000	12.450005	
12.450005	0.000000	0.000000	0.000000	12.450005	0.000000	0.000000	0.000000	12.450005	
12.450005	0.000000	0.000000	0.000000	12.450005	0.000000	0.000000	0.000000	12.450005	
12.450005	0.000000	0.000000	0.000000	12.450005	0.000000	0.000000	0.000000	12.450005	
12.450005	0.000000	0.000000	0.000000	12.450005	0.000000	0.000000	0.000000	12.450005	
12.450005	0.000000	0.000000	0.000000	12.450005	0.000000	0.000000	0.000000	12.450005	
12.450005	0.000000	0.000000	0.000000	12.450005	0.000000	0.000000	0.000000	12.450005	
12.450005	0.000000	0.000000	0.000000	12.450005	0.000000	0.000000	0.000000	12.450005	
12.450005	0.000000	0.000000	0.000000	12.450005	0.000000	0.000000	0.000000	12.450005	
12.450005	0.000000	0.000000	0.000000	12.450005	0.000000	0.000000	0.000000	12.450005	
12.450005	0.000000	0.000000	0.000000	12.450005	0.000000	0.000000	0.000000	12.450005	
12.450005	0.000000	0.000000	0.000000	12.450005	0.000000	0.000000	0.000000	12.450005	
12.450005	0.000000	0.000000	0.000000	12.450005	0.000000	0.000000	0.000000	12.450005	
12.450005	0.000000	0.000000	0.000000	12.450005	0.000000	0.000000	0.000000	12.450005	
12.450005	0.000000	0.000000	0.000000	12.450005	0.000000	0.000000	0.000000	12.450005	
12.450005	0.000000	0.000000	0.000000	12.450005	0.000000	0.000000	0.000000	12.450005	
12.450005	0.000000	0.000000	0.000000	12.450005	0.000000	0.000000	0.000000	12.450005	
12.450005	0.000000	0.000000	0.000000	12.450005	0.000000	0.000000	0.000000	12.450005	
12.450005	0.000000	0.000000	0.000000	12.450005	0.000000	0.000000	0.000000	12.450005	
12.450005	0.000000	0.000000	0.000000	12.450005	0.000000	0.000000	0.000000	12.450005	
12.450005	0.000000	0.000000	0.000000	12.450005	0.000000	0.000000	0.000000	12.450005	
12.450005	0.000000	0.000000	0.000000	12.450005	0.000000	0.000000	0.000000	12.450005	
12.450005	0.000000	0.000000	0.000000	12.450005	0.000000	0.000000	0.000000	12.450005	
12.450005	0.000000	0.000000	0.000000	12.450005	0.000000	0.000000	0.000000	12.450005	
12.450005	0.000000	0.000000	0.000000	12.450005	0.000000	0.000000	0.000000	12.450005	
12.450005	0.000000	0.000000	0.000000	12.450005	0.000000	0.000000	0.000000	12.450005	
12.450005	0.000000	0.000000	0.000000	12.450005	0.000000	0.000000	0.000000	12.450005	
12.450005	0.000000	0.000000	0.000000	12.450005	0.000000	0.000000	0.000000	12.450005	
12.450005	0.000000	0.000000	0.000000	12.450005	0.000000	0.000000	0.000000	12.450005	
12.450005	0.000000	0.000000	0.000000	12.450005	0.000000	0.000000	0.000000	12.450005	
12.450005	0.000000	0.000000	0.000000	12.450005	0.000000	0.000000	0.000000	12.450005	
12.450005	0.000000	0.000000	0.000000	12.450005	0.000000	0.000000	0.000000	12.450005	
12.450005	0.000000	0.000000	0.000000	12.450005	0.000000	0.000000	0.000000	12.450005	
12.450005	0.000000	0.000000	0.000000	12.450005	0.000000	0.000000	0.000000	12.450005	
12.450005	0.000000	0.000000	0.000000	12.450005	0.000000	0.000000	0.000000	12.450005	
12.450005	0.000000	0.000000	0.000000	12.450005	0.000000	0.000000	0.000000	12.450005	
12.450005	0.000000	0.000000	0.000000	12.450005	0.000000	0.000000	0.000000	12.450005	
12.450005	0.000000	0.000000	0.000000	12.450005	0.000000	0.000000	0.000000	12.450005	
12.450005	0.000000	0.000000	0.000000	12.450005	0.000000	0.000000	0.000000	12.450005	
12.450005	0.000000	0.000000	0.000000	12.450005	0.000000	0.000000	0.000000	12.450005	
12.450005	0.000000	0.000000	0.000000	12.450005	0.000000	0.000000	0.000000	12.450005	
12.450005	0.000000	0.000000	0.000000	12.450005	0.000000	0.000000	0.000000	12.450005	
12.450005	0.000000	0.000000	0.000000	12.450005	0.000000	0.000000	0.000000	12.450005	
12.450005	0.000000	0.000000	0.000000	12.450005	0.000000	0.000000	0.000000	12.450005	
12.450005	0.000000	0.000000	0.000000	12.450005	0.000000	0.000000	0.000000	12.450005	
12.450005	0.000000	0.000000	0.000000	12.450005	0.000000	0.000000	0.000000	12.450005	
12.450005	0.000000	0.000000	0.000000	12.450005	0.000000	0.000000	0.000000	12.450005	
12.450005	0.000000	0.000000	0.000000	12.450005	0.000000	0.000000	0.000000	12.450005	
12.450005	0.000000	0.000000	0.000000	12.450005	0.000000	0.000000	0.000000	12.450005	
12.450005	0.000000	0.000000	0.000000	12.450005	0.000000	0.000000	0.000000	12.450005	
12.450005	0.000000	0.000000	0.000000	12.450005	0.000000	0.000000	0.000000	12.450005	
12.450005	0.000000	0.000000	0.000000	12.450005	0.000000	0.000000	0.000000	12.450005	
12.450005	0.000000	0.000000	0.000000	12.450005	0.000000	0.000000	0.000000	12.450005	
12.450005	0.000000	0.000000	0.000000	12.450005	0.000000	0.000000	0.000000	12.450005	
12.450005	0.000000	0.000000	0.000000	12.450005	0.000000	0.000000	0.000000	12.450005	
12.450005	0.000000	0.000000	0.000000	12.450005	0.000000	0.000000	0.000000	12.450005	
12.450005	0.000000	0.000000	0.000000	12.450005	0.000000	0.000000	0.000000	12.450005	
12.450005	0.000000	0.000000	0.000000	12.450005	0.000000	0.000000	0.000000	12.450005	
12.450005	0.000000	0.000000	0.000000	12.450005	0.000000	0.000000	0.000000	12.450005	
12.450005	0.000000	0.000000	0.000000	12.450005	0.000000	0.000000	0.000000	12.450005	
12.450005	0.000000	0.000000	0.000000	12.450005	0.000000	0.000000	0.000000	12.450005	
12.450005	0.000000	0.000000	0.000000	12.450005	0.000000	0.000000	0.000000	12.450005	
12.450005	0.000000	0.000000	0.000000	12.450005	0.000000	0.000000	0.000000	12.450005	
12.450005	0.000000	0.000000	0.000000	12.450005	0.000000	0.000000	0.000000	12.450005	
12.450005	0.000000	0.000000	0.000000	12.450005	0.000000	0.000000	0.000000	12.450005	
12.450005	0.000000	0.000000	0.000000	12.450005	0.000000	0.000000	0.000000	12.450005	
12.450005	0.000000	0.000000	0.000000	12.450005	0.000000	0.000000	0.000000	12.450005	
12.450005	0.000000	0.000000	0.000000	12.450005	0.000000	0.000000	0.000000	12.450005	
12.450005	0.000000	0.000000	0.000000	12.450005	0.000000	0.000000	0.000000	12.450005	
12.450005	0.000000	0.000000	0.000000	12.450005	0.000000	0.000000	0.000000	12.450005	
12.450005	0.000000	0.000000	0.000000	12.450005	0.000000	0.000000	0.000000	12.450005	
12.450005	0.000000	0.000000	0.000000	12.450005	0.000000	0.000000	0.000000	12.450005	
12.450005	0.000000	0.000000	0.000000	12.450005	0.000000	0.000000	0.000000	12.450005	
12.450005	0.000000	0.000000	0.000000	12.450005	0.000000	0.000000	0.000000	12.450005	
12.450005	0.000000	0.000000	0.000000	12.450005	0.000000	0.000000	0.000000	12.450005	
12.450005	0.000000	0.000000	0.000000	12.450005	0.000000	0.000000	0.000000	12.450005	
12.450005	0.000000	0.000000	0.000000	12.450005	0.000000	0.000000	0.000000	12.450005	
12.450005	0.000000	0.000000	0.000000	12.450005	0.000000	0.000000	0.000000	12.450005	
12.450005	0.000000	0.000000	0.000000	12.450005	0.000000	0.000000	0.000000	12.450005	
12.450005	0.000000	0.000000	0.000000	12.450005	0.000000	0.000000	0.000000	12.450005	
12.450005	0.000000	0.000000	0.000000	12.450005	0.000000	0.000000	0.000000	12.450005	
12.450005	0.000000	0.000000	0.000000	12.450005	0.000000	0.000000	0.000000	12.450005	
12.450005	0.000000	0.000000	0.000000	12.450005	0.000000	0.000000	0.000000	12.450005	
12.450005	0.000000	0.000000	0.000000	12.450005	0.000000	0.000000	0.000000	12.450005	
12.450005	0.000000	0.000000	0.000000	12.450005	0.000000	0.000000	0.000000	12.450005	
12.450005	0.000000	0.000000	0.000000	12.450005	0.000000	0.000000	0.000000	12.450005	
12.450005	0.000000	0.000000	0.000000	12.450005	0.000000	0.000000	0.000000	12.450005	
12.450005	0.000000	0.000000	0.000000	12.450005	0.000000	0.000000	0.000000	12.450005	
16.413595	0.000000	0.000000	0.000000	16.413595	0.000000	0.000000	0.000000	16.413595	
16.503079	0.000000	0.000000	0.000000	16.503079	0.000000	0.000000	0.000000	16.503079	
16.782379	0.000000	0.000000	0.000000	16.782379	0.000000	0.000000	0.000000	16.782379	
16.605475	0.000000	0.000000	0.000000	16.605475	0.000000	0.000000	0.000000	16.605475	
16.304161	0.000000	0.000000	0.000000	16.304161	0.000000	0.000000	0.000000	16.304161	
16.363165	0.000000	0.000000	0.000000	16.363165	0.000000	0.000000	0.000000	16.363165	
16.318396	0.000000	0.000000	0.000000	16.318396	0.000000	0.000000	0.000000	16.318396	
16.419469	0.000000	0.000000	0.000000	16.419469	0.000000	0.000000	0.000000	16.419469	
16.446510	0.000000	0.000000	0.000000	16.446510	0.000000	0.000000	0.000000	16.446510	
16.430106	0.000000	0.000000	0.000000	16.430106	0.000000	0.000000	0.000000	16.430106	
16.582297	0.000000	0.000000	0.000000	16.582297	0.000000	0.000000	0.000000	16.582297	
16.572084	0.000000	0.000000	0.000000	16.572084	0.000000	0.000000	0.000000	16.572084	
16.445981	0.000000	0.000000	0.000000	16.445981	0.000000	0.000000	0.000000	16.445981	
16.413807	0.000000	0.000000	0.000000	16.413807	0.000000	0.000000	0.000000	16.413807	
16.422697	0.000000	0.000000	0.000000	16.422697	0.000000	0.000000	0.000000	16.422697	
16.457305	0.000000	0.000000	0.000000	16.457305	0.000000	0.000000	0.000000	16.457305	
16.456194	0.000000	0.000000	0.000000	16.456194	0.000000	0.000000	0.000000	16.456194	
16.428994	0.000000	0.000000	0.000000	16.428994	0.000000	0.000000	0.000000	16.428994	
16.146467	0.000000	0.000000	0.000000	16.146467	0.000000	0.000000	0.000000	16.146467	
16.263362	0.000000	0.000000	0.000000	16.263362	0.000000	0.000000	0.000000	16.263362	
16.342368	0.000000	0.000000	0.000000	16.342368	0.000000	0.000000	0.000000	16.342368	
16.273681	0.000000	0.000000	0.000000	16.273681	0.000000	0.000000	0.000000	16.273681	
16.507366	0.000000	0.000000	0.000000	16.507366	0.000000	0.000000	0.000000	16.507366	
16.461592	0.000000	0.000000	0.000000	16.461592	0.000000	0.000000	0.000000	16.461592	
16.493977	0.000000	0.000000	0.000000	16.493977	0.000000	0.000000	0.000000	16.493977	
16.528691	0.000000	0.000000	0.000000	16.528691	0.000000	0.000000	0.000000	16.528691	
16.500910	0.000000	0.000000	0.000000	16.500910	0.000000	0.000000	0.000000	16.500910	
16.335965	0.000000	0.000000	0.000000	16.335965	0.000000	0.000000	0.000000	16.335965	
16.379305	0.000000	0.000000	0.000000	16.379305	0.000000	0.000000	0.000000	16.379305	
16.284264	0.000000	0.000000	0.000000	16.284264	0.000000	0.000000	0.000000	16.284264	
16.541603	0.000000	0.000000	0.000000	16.541603	0.000000	0.000000	0.000000	16.541603	
16.472069	0.000000	0.000000	0.000000	16.472069	0.000000	0.000000	0.000000	16.472069	
16.473604	0.000000	0.000000	0.000000	16.473604	0.000000	0.000000	0.000000	16.473604	
16.485299	0.000000	0.000000	0.000000	16.485299	0.000000	0.000000	0.000000	16.485299	
16.493289	0.000000	0.000000	0.000000	16.493289	0.000000	0.000000	0.000000	16.493289	
16.628865	0.000000	0.000000	0.000000	16.628865	0.000000	0.000000	0.000000	16.628865	
16.364011	0.000000	0.000000	0.000000	16.364011	0.000000	0.000000	0.000000	16.364011	
16.270876	0.000000	0.000000	0.000000	16.270876	0.000000	0.000000	0.000000	16.270876	
16.393963	0.000000	0.000000	0.000000	16.393963	0.000000	0.000000	0.000000	16.393963	
16.307866	0.000000	0.000000	0.000000	16.307866	0.000000	0.000000	0.000000	16.307866	
16.470588	0.000000	0.000000	0.000000	16.470588	0.000000	0.000000	0.000000	16.470588	
16.231982	0.000000	0.000000	0.000000	16.231982	0.000000	0.000000	0.000000	16.231982	
16.374383	0.000000	0.000000	0.000000	16.374383	0.000000	0.000000	0.000000	16.374383	
16.329403	0.000000	0.000000	0.000000	16.329403	0.000000	0.000000	0.000000	16.329403	
16.428095	0.000000	0.000000	0.000000	16.428095	0.000000	0.000000	0.000000	16.428095	
16.473604	0.000000	0.000000	0.000000	16.473604	0.000000	0.000000	0.000000	16.473604	
16.439578	0.000000	0.000000	0.000000	16.439578	0.000000	0.000000	0.000000	16.439578	
16.509482	0.000000	0.000000	0.000000	16.509482	0.000000	0.000000	0.000000	16.509482	
16.370309	0.000000	0.000000	0.000000	16.370309	0.000000	0.000000	0.000000	16.370309	
16.435186	0.000000	0.000000	0.000000	16.435186	0.000000	0.000000	0.000000	16.435186	
16.613995	0.000000	0.000000	0.000000	16.613995	0.000000	0.000000	0.000000	16.613995	
16.483076	0.000000	0.000000	0.000000	16.483076	0.000000	0.000000	0.000000	16.483076	
16.508794	0.000000	0.000000	0.000000	16.508794	0.000000	0.000000	0.000000	16.508794	
16.502497	0.000000	0.000000	0.000000	16.502497	0.000000	0.000000	0.000000	16.502497	
16.443864	0.000000	0.000000	0.000000	16.443864	0.000000	0.000000	0.000000	16.443864	
16.238385	0.000000	0.000000	0.000000	16.238385	0.000000	0.000000	0.000000	16.238385	
16.374066	0.000000	0.000000	0.000000	16.374066	0.000000	0.000000	0.000000	16.374066	
16.445663	0.000000	0.000000	0.000000	16.445663	0.000000	0.000000	0.000000	16.445663	
16.347501	0.000000	0.000000	0.000000	16.347501	0.000000	0.000000	0.000000	16.347501	
16.515779	0.000000	0.000000	0.000000	16.515779	0.000000	0.000000	0.000000	16.515779	
16.304479	0.000000	0.000000	0.000000	16.304479	0.000000	0.000000	0.000000	16.304479	
16.466883	0.000000	0.000000	0.000000	16.466883	0.000000	0.000000	0.000000	16.466883	
16.497311	0.000000	0.000000	0.000000	16.497311	0.000000	0.000000	0.000000	16.497311	
16.700092	0.000000	0.000000	0.000000	16.700092	0.000000	0.000000	0.000000	16.700092	
16.395286	0.000000	0.000000	0.000000	16.395286	0.000000	0.000000	0.000000	16.395286	
16.480007	0.000000	0.000000	0.000000	16.480007	0.000000	0.000000	0.000000	16.480007	
16.324270	0.000000	0.000000	0.000000	16.324270	0.000000	0.000000	0.000000	16.324270	
16.394175	0.000000	0.000000	0.000000	16.394175	0.000000	0.000000	0.000000	16.394175	
16.391582	0.000000	0.000000	0.000000	16.391582	0.000000	0.000000	0.000000	16.391582	
16.406769	0.000000	0.000000	0.000000	16.406769	0.000000	0.000000	0.000000	16.406769	
16.295165	0.000000	0.000000	0.000000	16.295165	0.000000	0.000000	0.000000	16.295165	
16.635003	0.000000	0.000000	0.000000	16.635003	0.000000	0.000000	0.000000	16.635003	
16.406875	0.000000	0.000000	0.000000	16.406875	0.000000	0.000000	0.000000	16.406875	
16.328874	0.000000	0.000000	0.000000	16.328874	0.000000	0.000000	0.000000	16.328874	
16.457200	0.000000	0.000000	0.000000	16.457200	0.000000	0.000000	0.000000	16.457200	
16.501862	0.000000	0.000000	0.000000	16.501862	0.000000	0.000000	0.000000	16.501862	
16.513663	0.000000	0.000000	0.000000	16.513663	0.000000	0.000000	0.000000	16.513663	
16.538005	0.000000	0.000000	0.000000	16.538005	0.000000	0.000000	0.000000	16.538005	
16.607592	0.000000	0.000000	0.000000	16.607592	0.000000	0.000000	0.000000	16.607592	
16.447886	0.000000	0.000000	0.000000	16.447886	0.000000	0.000000	0.000000	16.447886	
16.459687	0.000000	0.000000	0.000000	16.459687	0.000000	0.000000	0.000000	16.459687	
16.380098	0.000000	0.000000	0.000000	16.380098	0.000000	0.000000	0.000000	16.380098	
16.479213	0.000000	0.000000	0.000000	16.479213	0.000000	0.000000	0.000000	16.479213	
16.420580	0.000000	0.000000	0.000000	16.420580	0.000000	0.000000	0.000000	16.420580	
16.588012	0.000000	0.000000	0.000000	16.588012	0.000000	0.000000	0.000000	16.588012	
16.557373	0.000000	0.000000	0.000000	16.557373	0.000000	0.000000	0.000000	16.557373	
16.490961	0.000000	0.000000	0.000000	16.490961	0.000000	0.000000	0.000000	16.490961	
16.373907	0.000000	0.000000	0.000000	16.373907	0.000000	0.000000	0.000000	16.373907	
16.548588	0.000000	0.000000	0.000000	16.548588	0.000000	0.000000	0.000000	16.548588	
16.492284	0.000000	0.000000	0.000000	16.492284	0.000000	0.000000	0.000000	16.492284	
16.532713	0.000000	0.000000	0.000000	16.532713	0.000000	0.000000	0.000000	16.532713	
16.262991	0.000000	0.000000	0.000000	16.262991	0.000000	0.000000	0.000000	16.262991	
16.526098	0.000000	0.000000	0.000000	16.526098	0.000000	0.000000	0.000000	16.526098	
16.398990	0.000000	0.000000	0.000000	16.398990	0.000000	0.000000	0.000000	16.398990	
16.382003	0.000000	0.000000	0.000000	16.382003	0.000000	0.000000	0.000000	16.382003	
16.489903	0.000000	0.000000	0.000000	16.489903	0.000000	0.000000	0.000000	16.489903	
16.424391	0.000000	0.000000	0.000000	16.424391	0.000000	0.000000	0.000000	16.424391	
16.454871	0.000000	0.000000	0.000000	16.454871	0.000000	0.000000	0.000000	16.454871	
16.416188	0.000000	0.000000	0.000000	16.416188	0.000000	0.000000	0.000000	16.416188	
16.448786	0.000000	0.000000	0.000000	16.448786	0.000000	0.000000	0.000000	16.448786	
16.460798	0.000000	0.000000	0.000000	16.460798	0.000000	0.000000	0.000000	16.460798	
16.394069	0.000000	0.000000	0.000000	16.394069	0.000000	0.000000	0.000000	16.394069	
16.299769	0.000000	0.000000	0.000000	16.299769	0.000000	0.000000	0.000000	16.299769	
16.455083	0.000000	0.000000	0.000000	16.455083	0.000000	0.000000	0.000000	16.455083	
16.378511	0.000000	0.000000	0.000000	16.378511	0.000000	0.000000	0.000000	16.378511	
16.404705	0.000000	0.000000	0.000000	16.404705	0.000000	0.000000	0.000000	16.404705	
16.446087	0.000000	0.000000	0.000000	16.446087	0.000000	0.000000	0.000000	16.446087	
16.180281	0.000000	0.000000	0.000000	16.180281	0.000000	0.000000	0.000000	16.180281	
16.338664	0.000000	0.000000	0.000000	16.338664	0.000000	0.000000	0.000000	16.338664	
16.481065	0.000000	0.000000	0.000000	16.481065	0.000000	0.000000	0.000000	16.481065	
16.471276	0.000000	0.000000	0.000000	16.471276	0.000000	0.000000	0.000000	16.471276	
16.541074	0.000000	0.000000	0.000000	16.541074	0.000000	0.000000	0.000000	16.541074	
16.167793	0.000000	0.000000	0.000000	16.167793	0.000000	0.000000	0.000000	16.167793	
16.553298	0.000000	0.000000	0.000000	16.553298	0.000000	0.000000	0.000000	16.553298	
16.469265	0.000000	0.000000	0.000000	16.469265	0.000000	0.000000	0.000000	16.469265	
16.416612	0.000000	0.000000	0.000000	16.416612	0.000000	0.000000	0.000000	16.416612	
16.432699	0.000000	0.000000	0.000000	16.432699	0.000000	0.000000	0.000000	16.432699	
16.298393	0.000000	0.000000	0.000000	16.298393	0.000000	0.000000	0.000000	16.298393	
16.317867	0.000000	0.000000	0.000000	16.317867	0.000000	0.000000	0.000000	16.317867	
16.392005	0.000000	0.000000	0.000000	16.392005	0.000000	0.000000	0.000000	16.392005	
16.366181	0.000000	0.000000	0.000000	16.366181	0.000000	0.000000	0.000000	16.366181	
16.496200	0.000000	0.000000	0.000000	16.496200	0.000000	0.000000	0.000000	16.496200	
16.459210	0.000000	0.000000	0.000000	16.459210	0.000000	0.000000	0.000000	16.459210	
16.351999	0.000000	0.000000	0.000000	16.351999	0.000000	0.000000	0.000000	16.351999	
16.269183	0.000000	0.000000	0.000000	16.269183	0.000000	0.000000	0.000000	16.269183	
12.450005	0.000000	0.000000	0.000000	12.450005	0.000000	0.000000	0.000000	12.450005	
12.450005	0.000000	0.000000	0.000000	12.450005	0.000000	0.000000	0.000000	12.450005	
12.450005	0.000000	0.000000	0.000000	12.450005	0.000000	0.000000	0.000000	12.450005	
12.450005	0.000000	0.000000	0.000000	12.450005	0.000000	0.000000	0.000000	12.450005	
12.450005	0.000000	0.000000	0.000000	12.450005	0.000000	0.000000	0.000000	12.450005	
12.450005	0.000000	0.000000	0.000000	12.450005	0.000000	0.000000	0.000000	12.450005	
12.450005	0.000000	0.000000	0.000000	12.450005	0.000000	0.000000	0.000000	12.450005	
12.450005	0.000000	0.000000	0.000000	12.450005	0.000000	0.000000	0.000000	12.450005	
12.450005	0.000000	0.000000	0.000000	12.450005	0.000000	0.000000	0.000000	12.450005	
12.450005	0.000000	0.000000	0.000000	12.450005	0.000000	0.000000	0.000000	12.450005	
12.450005	0.000000	0.000000	0.000000	12.450005	0.000000	0.000000	0.000000	12.450005	
12.450005	0.000000	0.000000	0.000000	12.450005	0.000000	0.000000	0.000000	12.450005	
12.450005	0.000000	0.000000	0.000000	12.450005	0.000000	0.000000	0.000000	12.450005	
12.450005	0.000000	0.000000	0.000000	12.450005	0.000000	0.000000	0.000000	12.450005	
12.450005	0.000000	0.000000	0.000000	12.450005	0.000000	0.000000	0.000000	12.450005	
12.450005	0.000000	0.000000	0.000000	12.450005	0.000000	0.000000	0.000000	12.450005	
12.450005	0.000000	0.000000	0.000000	12.450005	0.000000	0.000000	0.000000	12.450005	
12.450005	0.000000	0.000000	0.000000	12.450005	0.000000	0.000000	0.000000	12.450005	
12.450005	0.000000	0.000000	0.000000	12.450005	0.000000	0.000000	0.000000	12.450005	
12.450005	0.000000	0.000000	0.000000	12.450005	0.000000	0.000000	0.000000	12.450005	
12.450005	0.000000	0.000000	0.000000	12.450005	0.000000	0.000000	0.000000	12.450005	
12.450005	0.000000	0.000000	0.000000	12.450005	0.000000	0.000000	0.000000	12.450005	
12.450005	0.000000	0.000000	0.000000	12.450005	0.000000	0.000000	0.000000	12.450005	
12.450005	0.000000	0.000000	0.000000	12.450005	0.000000	0.000000	0.000000	12.450005	
12.450005	0.000000	0.000000	0.000000	12.450005	0.000000	0.000000	0.000000	12.450005	
12.450005	0.000000	0.000000	0.000000	12.450005	0.000000	0.000000	0.000000	12.450005	
12.450005	0.000000	0.000000	0.000000	12.450005	0.000000	0.000000	0.000000	12.450005	
12.450005	0.000000	0.000000	0.000000	12.450005	0.000000	0.000000	0.000000	12.450005	
12.450005	0.000000	0.000000	0.000000	12.450005	0.000000	0.000000	0.000000	12.450005	
12.450005	0.000000	0.000000	0.000000	12.450005	0.000000	0.000000	0.000000	12.450005	
12.450005	0.000000	0.000000	0.000000	12.450005	0.000000	0.000000	0.000000	12.450005	
12.450005	0.000000	0.000000	0.000000	12.450005	0.000000	0.000000	0.000000	12.450005	
12.450005	0.000000	0.000000	0.000000	12.450005	0.000000	0.000000	0.000000	12.450005	
12.450005	0.000000	0.000000	0.000000	12.450005	0.000000	0.000000	0.000000	12.450005	
12.450005	0.000000	0.000000	0.000000	12.450005	0.000000	0.000000	0.000000	12.450005	
12.450005	0.000000	0.000000	0.000000	12.450005	0.000000	0.000000	0.000000	12.450005	
12.450005	0.000000	0.000000	0.000000	12.450005	0.000000	0.000000	0.000000	12.450005	
12.450005	0.000000	0.000000	0.000000	12.450005	0.000000	0.000000	0.000000	12.450005	
12.450005	0.000000	0.000000	0.000000	12.450005	0.000000	0.000000	0.000000	12.450005	
12.450005	0.000000	0.000000	0.000000	12.450005	0.000000	0.000000	0.000000	12.450005	
12.450005	0.000000	0.000000	0.000000	12.450005	0.000000	0.000000	0.000000	12.450005	
12.450005	0.000000	0.000000	0.000000	12.450005	0.000000	0.000000	0.000000	12.450005	
12.450005	0.000000	0.000000	0.000000	12.450005	0.000000	0.000000	0.000000	12.450005	
12.450005	0.000000	0.000000	0.000000	12.450005	0.000000	0.000000	0.000000	12.450005	
12.450005	0.000000	0.000000	0.000000	12.450005	0.000000	0.000000	0.000000	12.450005	
12.450005	0.000000	0.000000	0.000000	12.450005	0.000000	0.000000	0.000000	12.450005	
12.450005	0.000000	0.000000	0.000000	12.450005	0.000000	0.000000	0.000000	12.450005	
12.450005	0.000000	0.000000	0.000000	12.450005	0.000000	0.000000	0.000000	12.450005	
12.450005	0.000000	0.000000	0.000000	12.450005	0.000000	0.000000	0.000000	12.450005	
12.450005	0.000000	0.000000	0.000000	12.450005	0.000000	0.000000	0.000000	12.450005	
12.450005	0.000000	0.000000	0.000000	12.450005	0.000000	0.000000	0.000000	12.450005	
12.450005	0.000000	0.000000	0.000000	12.450005	0.000000	0.000000	0.000000	12.450005	
12.450005	0.000000	0.000000	0.000000	12.450005	0.000000	0.000000	0.000000	12.450005	
12.450005	0.000000	0.000000	0.000000	12.450005	0.000000	0.000000	0.000000	12.450005	
12.450005	0.000000	0.000000	0.000000	12.450005	0.000000	0.000000	0.000000	12.450005	
12.450005	0.000000	0.000000	0.000000	12.450005	0.000000	0.000000	0.000000	12.450005	
12.450005	0.000000	0.000000	0.000000	12.450005	0.000000	0.000000	0.000000	12.450005	
12.450005	0.000000	0.000000	0.000000	12.450005	0.000000	0.000000	0.000000	12.450005	
13.721300	0.000000	0.000000	0.000000	13.721300	0.000000	0.000000	0.000000	13.721300	
13.657905	0.000000	0.000000	0.000000	13.657905	0.000000	0.000000	0.000000	13.657905	
13.684205	0.000000	0.000000	0.000000	13.684205	0.000000	0.000000	0.000000	13.684205	
13.682088	0.000000	0.000000	0.000000	13.682088	0.000000	0.000000	0.000000	13.682088	
13.629012	0.000000	0.000000	0.000000	13.629012	0.000000	0.000000	0.000000	13.629012	
13.629382	0.000000	0.000000	0.000000	13.629382	0.000000	0.000000	0.000000	13.629382	
13.614671	0.000000	0.000000	0.000000	13.614671	0.000000	0.000000	0.000000	13.614671	
13.635309	0.000000	0.000000	0.000000	13.635309	0.000000	0.000000	0.000000	13.635309	
13.607369	0.000000	0.000000	0.000000	13.607369	0.000000	0.000000	0.000000	13.607369	
13.672299	0.000000	0.000000	0.000000	13.672299	0.000000	0.000000	0.000000	13.672299	
13.698281	0.000000	0.000000	0.000000	13.698281	0.000000	0.000000	0.000000	13.698281	
13.631605	0.000000	0.000000	0.000000	13.631605	0.000000	0.000000	0.000000	13.631605	
13.607263	0.000000	0.000000	0.000000	13.607263	0.000000	0.000000	0.000000	13.607263	
13.658381	0.000000	0.000000	0.000000	13.658381	0.000000	0.000000	0.000000	13.658381	
13.663673	0.000000	0.000000	0.000000	13.663673	0.000000	0.000000	0.000000	13.663673	
13.654995	0.000000	0.000000	0.000000	13.654995	0.000000	0.000000	0.000000	13.654995	
13.600595	0.000000	0.000000	0.000000	13.600595	0.000000	0.000000	0.000000	13.600595	
13.610967	0.000000	0.000000	0.000000	13.610967	0.000000	0.000000	0.000000	13.610967	
13.636315	0.000000	0.000000	0.000000	13.636315	0.000000	0.000000	0.000000	13.636315	
13.721565	0.000000	0.000000	0.000000	13.721565	0.000000	0.000000	0.000000	13.721565	
13.723893	0.000000	0.000000	0.000000	13.723893	0.000000	0.000000	0.000000	13.723893	
13.721406	0.000000	0.000000	0.000000	13.721406	0.000000	0.000000	0.000000	13.721406	
13.743367	0.000000	0.000000	0.000000	13.743367	0.000000	0.000000	0.000000	13.743367	
13.775488	0.000000	0.000000	0.000000	13.775488	0.000000	0.000000	0.000000	13.775488	
13.688703	0.000000	0.000000	0.000000	13.688703	0.000000	0.000000	0.000000	13.688703	
13.716379	0.000000	0.000000	0.000000	13.716379	0.000000	0.000000	0.000000	13.716379	
13.667113	0.000000	0.000000	0.000000	13.667113	0.000000	0.000000	0.000000	13.667113	
13.718813	0.000000	0.000000	0.000000	13.718813	0.000000	0.000000	0.000000	13.718813	
13.707595	0.000000	0.000000	0.000000	13.707595	0.000000	0.000000	0.000000	13.707595	
13.721195	0.000000	0.000000	0.000000	13.721195	0.000000	0.000000	0.000000	13.721195	
13.702197	0.000000	0.000000	0.000000	13.702197	0.000000	0.000000	0.000000	13.702197	
13.672987	0.000000	0.000000	0.000000	13.672987	0.000000	0.000000	0.000000	13.672987	
13.664414	0.000000	0.000000	0.000000	13.664414	0.000000	0.000000	0.000000	13.664414	
13.705901	0.000000	0.000000	0.000000	13.705901	0.000000	0.000000	0.000000	13.705901	
13.643194	0.000000	0.000000	0.000000	13.643194	0.000000	0.000000	0.000000	13.643194	
13.706695	0.000000	0.000000	0.000000	13.706695	0.000000	0.000000	0.000000	13.706695	
13.547095	0.000000	0.000000	0.000000	13.547095	0.000000	0.000000	0.000000	13.547095	
13.673410	0.000000	0.000000	0.000000	13.673410	0.000000	0.000000	0.000000	13.673410	
13.585778	0.000000	0.000000	0.000000	13.585778	0.000000	0.000000	0.000000	13.585778	
13.612290	0.000000	0.000000	0.000000	13.612290	0.000000	0.000000	0.000000	13.612290	
13.730508	0.000000	0.000000	0.000000	13.730508	0.000000	0.000000	0.000000	13.730508	
13.618270	0.000000	0.000000	0.000000	13.618270	0.000000	0.000000	0.000000	13.618270	
13.590805	0.000000	0.000000	0.000000	13.590805	0.000000	0.000000	0.000000	13.590805	
13.561383	0.000000	0.000000	0.000000	13.561383	0.000000	0.000000	0.000000	13.561383	
13.685475	0.000000	0.000000	0.000000	13.685475	0.000000	0.000000	0.000000	13.685475	
13.561066	0.000000	0.000000	0.000000	13.561066	0.000000	0.000000	0.000000	13.561066	
13.623667	0.000000	0.000000	0.000000	13.623667	0.000000	0.000000	0.000000	13.623667	
13.629488	0.000000	0.000000	0.000000	13.629488	0.000000	0.000000	0.000000	13.629488	
13.532014	0.000000	0.000000	0.000000	13.532014	0.000000	0.000000	0.000000	13.532014	
13.641183	0.000000	0.000000	0.000000	13.641183	0.000000	0.000000	0.000000	13.641183	
13.573766	0.000000	0.000000	0.000000	13.573766	0.000000	0.000000	0.000000	13.573766	
13.671293	0.000000	0.000000	0.000000	13.671293	0.000000	0.000000	0.000000	13.671293	
13.728074	0.000000	0.000000	0.000000	13.728074	0.000000	0.000000	0.000000	13.728074	
13.570115	0.000000	0.000000	0.000000	13.570115	0.000000	0.000000	0.000000	13.570115	
13.462109	0.000000	0.000000	0.000000	13.462109	0.000000	0.000000	0.000000	13.462109	
13.666901	0.000000	0.000000	0.000000	13.666901	0.000000	0.000000	0.000000	13.666901	
13.647004	0.000000	0.000000	0.000000	13.647004	0.000000	0.000000	0.000000	13.647004	
13.531379	0.000000	0.000000	0.000000	13.531379	0.000000	0.000000	0.000000	13.531379	
13.645893	0.000000	0.000000	0.000000	13.645893	0.000000	0.000000	0.000000	13.645893	
13.724264	0.000000	0.000000	0.000000	13.724264	0.000000	0.000000	0.000000	13.724264	
13.551805	0.000000	0.000000	0.000000	13.551805	0.000000	0.000000	0.000000	13.551805	
13.643882	0.000000	0.000000	0.000000	13.643882	0.000000	0.000000	0.000000	13.643882	
13.675474	0.000000	0.000000	0.000000	13.675474	0.000000	0.000000	0.000000	13.675474	
13.622873	0.000000	0.000000	0.000000	13.622873	0.000000	0.000000	0.000000	13.622873	
13.555298	0.000000	0.000000	0.000000	13.555298	0.000000	0.000000	0.000000	13.555298	