-29911.966246
-29911.443480
-29912.257288
-29911.450802
-29911.460306
-29912.137207
-29911.402108
-29913.673676
-29913.383725
-29912.409095
-29912.159440
-29913.024447
-29913.746677
-29913.468926
-29912.749628
-29912.752866
-29911.960200
-29911.748942
-29913.216228
-29911.573136
-29912.676965
-29912.169136
-29913.088770
-29910.675937
-29910.763223
-29910.650447
-29912.749491
-29911.874683
-29912.681149
-29913.148947
-29910.633215
-29911.397257
-29910.987785
-29913.173308
-29912.088459
-29913.015403
-29913.113246
-29913.240547
-29911.151831
-29912.019479
-29911.893538
-29911.993004
-29912.194493
-29909.694319
-29910.454310
-29909.864035
-29907.703928
-29908.799022
-29909.972613
-29909.727503
-29909.424786
-29906.937008
-29909.078925
-29908.054324
-29909.057002
-29907.629022
-29908.317723
-29908.748185
-29909.258709
-29910.438837
-29907.996714
-29908.951454
-29907.846254
-29908.460321
-29909.019258
-29908.226855
-29909.475014
-29908.783945
-29910.139010
-29909.344974
-29911.075424
-29911.808760
-29910.544482
-29910.111866
-29909.393334
-29910.511326
-29910.265133
-29909.678811
-29909.784221
-29910.111747
-29910.500101
-29910.678290
-29909.081324
-29909.275432
-29909.535472
-29909.078096
-29909.175510
-29908.589990
-29908.248186
-29909.742130
-29909.542923
-29908.989510
-29910.091856
-29908.893054
-29908.813586
-29908.952006
-29907.995394
-29907.606882
-29908.396784
-29909.622318
-29908.890328
-29909.517836
-29907.976231
-29908.651094
-29900.327538
-29900.421444
-29899.329054
-29899.656287
-29899.305097
-29899.656238
-29900.649270
-29902.441470
-29901.490117
-29900.889693
-29901.520744
-29900.877061
-29901.499583
-29901.459722
-29902.472809
-29902.223413
-29899.313969
-29901.331940
-29902.023282
-29901.561098
-29902.071379
-29902.063926
-29901.069518
-29900.556989
-29900.412184
-29900.642334
-29901.064931
-29901.347171
-29902.294378
-29901.785186
-29901.776398
-29902.459431
-29900.571719
-29900.745877
-29901.414985
-29901.086933
-29901.613607
-29902.014244
-29902.264703
-29901.972350
-29901.979459
-29902.027380
-29900.657610
-29901.613336
-29901.799416
-29900.883696
-29900.818011
-29900.771255
-29902.631196
-29901.118512
-29900.818076
-29901.079102
-29901.447839
-29901.799832
-29901.928056
-29901.313318
-29901.557222
-29901.310380
-29902.412248
-29901.338099
-29902.039698
-29901.568826
-29899.468676
-29900.367254
-29902.852603
-29900.712787
-29901.566612
-29902.418631
-29901.864247
-29901.983814
-29902.608440
-29901.068470
-29901.884961
-29903.203469
-29903.054972
-29902.790733
-29902.555763
-29902.030462
-29901.175282
-29901.459784
-29900.390499
-29900.262574
-29900.552108
-29902.019119
-29901.387092
-29901.678779
-29901.977495
-29901.590223
-29901.367731
-29902.907054
-29901.519078
-29902.472557
-29901.593311
-29902.107448
-29901.872927
-29901.054039
-29901.772578
-29900.620737
-29901.512621
-29901.377061
-29902.151248
-29902.757526
-29902.681518
-29902.032422
-29902.743509
-29902.211591
-29901.397146
-29901.758403
-29902.118928
-29900.704705
-29901.099954
-29900.917016
-29904.168938
-29902.148788
-29902.135938
-29902.564027
-29902.483708
-29901.461891
-29901.465284
-29901.166058
-29902.057424
-29901.480224
-29901.665088
-29902.202934
-29902.452262
-29906.430597
-29906.669643
-29906.540770
-29907.961103
-29906.621768
-29907.460658
-29908.333976
-29906.906173
-29906.436215
-29906.564149
-29907.509438
-29906.204191
-29907.198017
-29907.751231
-29908.011410
-29906.119025
-29905.763246
-29905.928059
-29907.984698
-29908.516950
-29907.605009
-29905.737833
-29905.285688
-29906.294734
-29907.198508
-29906.602374
-29905.811298
-29907.055887
-29907.689389
-29907.063924
-29907.617784
-29906.986565
-29906.353532
-29907.152770
-29905.936075
-29906.835156
-29907.773281
-29907.203751
-29907.958415
-29906.720202
-29906.935520
-29907.158965
-29907.025029
-29907.594117
-29907.740331
-29907.555937
-29906.912064
-29907.181267
-29908.521135
-29906.504978
-29907.812681
-29908.016969
-29906.715988
-29907.423000
-29906.627274
-29906.306130
-29906.712999
-29906.880037
-29910.853537
-29912.335147
-29912.025319
-29912.687952
-29911.375644
-29910.991138
-29911.490067
-29910.634785
-29910.901675
-29911.644949
-29911.192866
-29911.620781
-29910.801864
-29910.314433
-29910.037951
-29911.150526
-29910.920937
-29911.200032
-29910.934879
-29911.544341
-29911.316374
-29910.684482
-29911.103193
-29911.780946
-29911.851471
-29911.853534
-29911.289152
-29911.413689
-29911.545037
-29911.274217
-29911.613321
-29912.066283
-29911.213339
-29911.533621
-29910.942405
-29911.349910
-29912.809667
-29910.782452
-29912.214352
-29911.646970
-29910.771870
-29911.592061
-29911.290119
-29910.855389
-29911.857386
-29912.515989
-29911.812904
-29911.953791
-29913.047542
-29912.328893
-29912.094155
-29912.574970
-29911.112570
-29911.763661
-29911.294298
-29911.424760
-29912.581716
-29908.906378
-29910.185288
-29909.969680
-29909.916302
-29909.899890
-29909.635614
-29910.767076
-29910.605823
-29911.259822
-29912.542904
-29911.332370
-29913.102162
-29911.345482
-29910.772958
-29912.457543
-29910.758739
-29912.295424
-29911.290261
-29911.959368
-29910.555560
-29913.472455
-29912.654417
-29912.505939
-29911.381659
-29912.032925
-29912.068152
-29909.472775
-29910.091631
-29900.712787
-29901.566612
-29902.418631
-29901.864247
-29901.983814
-29902.608440
-29901.068470
-29901.884961
-29903.203469
-29903.054972
-29902.790733
-29902.555763
-29902.030462
-29901.175282
-29901.459784
-29900.390499
-29900.262574
-29900.552108
-29902.019119
-29901.387092
-29901.678779
-29901.977495
-29901.590223
-29901.367731
-29902.907054
-29901.519078
-29902.472557
-29901.593311
-29902.107448
-29901.872927
-29901.054039
-29901.772578
-29900.620737
-29901.512621
-29901.377061
-29902.151248
-29902.757526
-29902.681518
-29902.032422
-29902.743509
-29902.211591
-29901.397146
-29901.758403
-29902.118928
-29900.704705
-29901.099954
-29900.917016
-29904.168938
-29902.148788
-29902.135938
-29902.564027
-29902.483708
-29901.461891
-29901.465284
-29901.166058
-29902.057424
-29901.480224
-29901.665088
-29902.202934
-29902.452262
-29909.205440
-29910.860788
-29910.985836
-29911.663699
-29911.543790
-29911.892864
-29911.763845
-29911.731742
-29911.122669
-29911.055947
-29910.837664
-29911.307290
-29911.003168
-29910.976706
-29910.540263
-29911.331238
-29911.231041
-29910.804088
-29911.314662
-29910.668913
-29910.576828
-29911.266133
-29911.069925
-29911.840816
-29912.274369
-29911.896932
-29911.252077
-29912.620966
-29911.912576
-29912.552582
-29911.878119
-29911.547717
-29912.821725
-29912.835517
-29912.704051
-29913.098694
-29913.856944
-29913.299556
-29913.476855
-29913.967498
-29913.390393
-29914.288290
-29914.778943
-29913.063456
-29913.699754
-29914.280007
-29914.046177
-29913.532170
-29913.521772
-29913.861494
-29914.776749
-29915.245799
-29913.710869
-29915.790680
-29914.270531
-29914.430199
-29914.928586
-29915.022579
-29916.230899
-29914.842696
-29915.217824
-29915.803229
-29914.151392
-29915.270393
-29914.324246
-29915.885064
-29914.316328
-29914.608839
-29914.374412
-29914.138997
-29914.557112
-29914.846191
-29914.213414
-29913.982531
-29914.582331
-29915.174562
-29914.511700
-29914.958056
-29914.351841
-29914.050472
-29914.533788
-29911.806755
-29914.483420
-29913.441978
-29913.743569
-29913.106168
-29913.477811
-29914.267982
-29914.145112
-29913.959130
-29913.239960
-29914.319882
-29914.323687
-29913.296430
-29912.973813
-29912.244011
-29914.004143
-29913.494459
-29912.829095
-29911.372143
-29912.706579
-29913.025176
-29912.042947
-29913.011072
-29911.923893
-29912.811258
-29912.989524
-29913.569098
-29915.249507
-29912.891079
-29912.160034
-29914.191096
-29914.103858
-29914.275883
-29913.836479
-29914.307809
-29912.691594
-29911.886665
-29912.957935
-29912.248011
-29913.361586
-29913.271962
-29913.193876
-29912.503224
-29912.091483
-29912.855578
-29912.446975
-29911.775480
-29912.723730
-29913.389675
-29915.020400
-29914.812535
-29912.456491
-29913.538112
-29914.235347
-29913.615546
-29912.843163
-29913.400116
-29915.187720
-29914.137210
-29913.836374
-29914.605573
-29914.676278
-29914.364868
-29914.851154
-29914.528511
-29912.436449
-29912.604794
-29911.782110
-29913.837344
-29915.169995
-29914.017487
-29915.051869
-29915.400124
-29914.493824
-29915.578349
-29915.374820
-29914.871763
-29915.112545
-29914.375383
-29914.807719
-29912.698006
-29913.574816
-29915.029033
-29914.695605
-29917.126821
-29915.033085
-29915.408754
-29915.473833
-29916.319700
-29913.876561
-29914.367522
-29914.203404
-29913.580737
-29914.327816
-29912.643038
-29913.620036
-29910.518020
-29908.838656
-29911.341325
-29910.343591
-29910.408436
-29909.780600
-29911.181443
-29910.464071
-29910.574807
-29910.754100
-29910.250388
-29910.508912
-29911.120086
-29909.664068
-29910.572973
-29910.167029
-29911.820703
-29909.938887
-29911.114492
-29911.011247
-29909.838026
-29910.931533
-29910.968703
-29911.162909
-29911.268063
-29910.439509
-29910.490707
-29911.084683
-29910.015897
-29910.135529
-29910.655533
-29911.745719
-29910.716527
-29911.724307
-29911.570322
-29911.981353
-29911.193491
-29911.466121
-29911.138761
-29910.956716
-29911.310254
-29910.767734
-29911.463144
-29910.485952
-29909.993966
-29909.987155
-29911.255680
-29909.784200
-29910.124620
-29911.209818
-29911.709531
-29911.857524
-29911.132078
-29911.848679
-29911.472207
-29911.399828
-29910.840552
-29911.670167
-29911.429531
-29911.334884
-29911.534564
-29912.115961
-29912.953413
-29912.141670
-29911.723680
-29911.461638
-29911.913723
-29911.845065
-29911.469381
-29911.037265
-29910.468664
-29911.249224
-29912.137554
-29912.031338
-29912.900952
-29911.324076
-29910.917267
-29911.502799
-29911.070887
-29912.773482
-29912.584613
-29912.488764
-29911.803187
-29912.147119
-29911.814938
-29913.294533
-29911.571805
-29910.639414
-29911.433223
-29909.984116
-29909.698360
-29909.678649
-29910.093507
-29909.331325
-29909.644953
-29910.920939
-29911.623892
-29909.909227
-29911.244385
-29910.612928
-29910.717294
-29910.955911
-29911.591378
-29910.343175
-29911.031003
-29911.184953
-29911.529826
-29911.206440
-29912.002030
-29911.035986
-29911.848536
-29911.309732
-29910.978995
-29910.395414
-29911.822986
-29909.216311
-29910.439751
-29912.046363
-29911.445556
-29911.098006
-29911.092262
-29910.274661
-29909.528716
-29910.309010
-29910.777510
-29910.746191
-29911.534599
-29910.412387
-29909.743467
-29910.803469
-29909.403390
-29912.036327
-29913.447920
-29909.982060
-29911.100382
-29912.048650
-29911.800608
-29911.125328
-29910.596145
-29911.276815
-29911.618710
-29911.692827
-29911.836147
-29912.877555
-29911.525937
-29913.241724
-29913.618435
-29912.226884
-29913.302401
-29912.401941
-29910.719126
-29913.612441
-29913.025222
-29912.882159
-29914.272226
-29912.032712
-29912.725179
-29912.544922
-29912.960462
-29913.583682
-29912.186233
-29912.558321
-29912.387337
-29913.916127
-29914.231702
-29911.578739
-29911.522766
-29913.214557
-29911.641142
-29912.647874
-29912.262398
-29912.556711
-29911.814656
-29912.111312
-29913.041237
-29912.709167
-29913.261797
-29913.409992
-29914.221223
-29913.772511
-29912.744799
-29914.341248
-29913.619396
-29912.569591
-29913.035311
-29912.699063
-29912.725058
-29912.988957
-29912.913207
-29912.003451
-29913.481990
